<LesHouchesEvents version="3.0">
<header>
<!--
#*********************************************************************
#                                                                    *
#                        MadGraph5_aMC@NLO                           *
#                                                                    *
#                           Going Beyond                             *
#                                                                    *
#                   http://madgraph.hep.uiuc.edu                     *
#                   http://madgraph.phys.ucl.ac.be                   *
#                   http://amcatnlo.cern.ch                          *
#                                                                    *
#                     The MadGraph5_aMC@NLO team                     *
#                                                                    *
#....................................................................*
#                                                                    *
# This file contains all the information necessary to reproduce      *
# the events generated:                                              *
#                                                                    *
# 1. software version                                                *
# 2. proc_card          : code generation info including model       *
# 3. param_card         : model primary parameters in the LH format  *
# 4. run_card           : running parameters (collider and cuts)     *
# 5. pythia_card        : present only if pythia has been run        *
# 6. pgs_card           : present only if pgs has been run           *
# 7. delphes_cards      : present only if delphes has been run       *
#                                                                    *
#                                                                    *
#*********************************************************************
-->
<MGVersion>
2.6.1
</MGVersion>
<MG5ProcCard>
<![CDATA[
#************************************************************
#*                     MadGraph5_aMC@NLO                    *
#*                                                          *
#*                *                       *                 *
#*                  *        * *        *                   *
#*                    * * * * 5 * * * *                     *
#*                  *        * *        *                   *
#*                *                       *                 *
#*                                                          *
#*                                                          *
#*         VERSION 2.6.1                 2017-12-12         *
#*                                                          *
#*    The MadGraph5_aMC@NLO Development Team - Find us at   *
#*    https://server06.fynu.ucl.ac.be/projects/madgraph     *
#*                                                          *
#************************************************************
#*                                                          *
#*               Command File for MadGraph5_aMC@NLO         *
#*                                                          *
#*     run as ./bin/mg5_aMC  filename                       *
#*                                                          *
#************************************************************
set group_subprocesses Auto
set ignore_six_quark_processes False
set loop_optimized_output True
set loop_color_flows False
set gauge unitary
set complex_mass_scheme False
set max_npoint_for_channel 0
import model /home/hershen/madgraph/MG5_aMC_v2_6_1/models/ALP_UFO
define p = g u c d s u~ c~ d~ s~
define j = g u c d s u~ c~ d~ s~
define l+ = e+ mu+
define l- = e- mu-
define vl = ve vm vt
define vl~ = ve~ vm~ vt~
generate e+ e- > a sk /Z, sk > a a /Z
output mass5.00e+00_coup1.0000e-03_numEvents10000
]]>
</MG5ProcCard>
<MGProcCard>
#*********************************************************************
#                        MadGraph/MadEvent                           *
#                   http://madgraph.hep.uiuc.edu                     *
#                                                                    *
#                          proc_card.dat                             *
#*********************************************************************
#                                                                    *
#            This Files is generated by MADGRAPH 5                   *
#                                                                    *
# WARNING: This Files is generated for MADEVENT (compatibility issue)*
#          This files is NOT a valid MG4 proc_card.dat               *
#          Running this in MG4 will NEVER reproduce the result of MG5*
#                                                                    *
#*********************************************************************
#*********************************************************************
# Process(es) requested : mg2 input                                  *
#*********************************************************************
# Begin PROCESS # This is TAG. Do not modify this line
e+ e- > a sk /Z , sk > a a /Z           #Process
# Be carefull the coupling are here in MG5 convention
          
end_coup           # End the couplings input

done               # this tells MG there are no more procs
# End PROCESS  # This is TAG. Do not modify this line
#*********************************************************************
# Model information                                                  *
#*********************************************************************
# Begin MODEL  # This is TAG. Do not modify this line
ALP_UFO
# End   MODEL  # This is TAG. Do not modify this line
#*********************************************************************
# Start multiparticle definitions                                    *
#*********************************************************************
# Begin MULTIPARTICLES # This is TAG. Do not modify this line

# End  MULTIPARTICLES # This is TAG. Do not modify this line
</MGProcCard>
<MGRunCard>
<![CDATA[
#*********************************************************************
#                       MadGraph5_aMC@NLO                            *
#                                                                    *
#                     run_card.dat MadEvent                          *
#                                                                    *
#  This file is used to set the parameters of the run.               *
#                                                                    *
#  Some notation/conventions:                                        *
#                                                                    *
#   Lines starting with a '# ' are info or comments                  *
#                                                                    *
#   mind the format:   value    = variable     ! comment             *
#*********************************************************************
#
#*******************                                                 
# Running parameters
#*******************                                                 
#                                                                    
#*********************************************************************
# Tag name for the run (one word)                                    *
#*********************************************************************
  tag_1	= run_tag ! name of the run 
#*********************************************************************
# Number of events and rnd seed                                      *
# Warning: Do not generate more than 1M events in a single run       *
# If you want to run Pythia, avoid more than 50k events in a run.    *
#*********************************************************************
  10000	= nevents ! Number of unweighted events requested 
 21 = iseed ! rnd seed (0=assigned automatically=default))
#*********************************************************************
# Collider type and energy                                           *
# lpp: 0=No PDF, 1=proton, -1=antiproton, 2=photon from proton,      *
#                                         3=photon from electron     *
#*********************************************************************
  0	= lpp1 ! beam 1 type 
  0	= lpp2 ! beam 2 type
  5.2897	= ebeam1 ! beam 1 total energy in GeV
  5.2897	= ebeam2 ! beam 2 total energy in GeV
#*********************************************************************
# Beam polarization from -100 (left-handed) to 100 (right-handed)    *
#*********************************************************************
  0.0	= polbeam1 ! beam polarization for beam 1
  0.0	= polbeam2 ! beam polarization for beam 2
#*********************************************************************
# PDF CHOICE: this automatically fixes also alpha_s and its evol.    *
#*********************************************************************
  nn23lo1	= pdlabel ! PDF set                                     
  230000	= lhaid ! if pdlabel=lhapdf, this is the lhapdf number
#*********************************************************************
# Renormalization and factorization scales                           *
#*********************************************************************
  False	= fixed_ren_scale ! if .true. use fixed ren scale
  False	= fixed_fac_scale ! if .true. use fixed fac scale
  91.188	= scale ! fixed ren scale
  91.188	= dsqrt_q2fact1 ! fixed fact scale for pdf1
  91.188	= dsqrt_q2fact2 ! fixed fact scale for pdf2
  -1	= dynamical_scale_choice ! Choose one of the preselected dynamical choices
  -1.0	= scalefact ! scale factor for event-by-event scales
#*********************************************************************
# Type and output format
#*********************************************************************
  False	= gridpack !True = setting up the grid pack
  1e-106	= time_of_flight ! threshold (in mm) below which the invariant livetime is not written (-1 means not written)
  3.0	= lhe_version ! Change the way clustering information pass to shower.        
  True	= clusinfo ! include clustering tag in output
  average	= event_norm ! average/sum. Normalization of the weight in the LHEF

#*********************************************************************
# Matching parameter (MLM only)
#*********************************************************************
  0	= ickkw ! 0 no matching, 1 MLM
  1.0	= alpsfact ! scale factor for QCD emission vx
  False	= chcluster ! cluster only according to channel diag
  5	= asrwgtflavor ! highest quark flavor for a_s reweight
  False	= auto_ptj_mjj ! Automatic setting of ptj and mjj if xqcut >0
                                   ! (turn off for VBF and single top processes) 
  0.0	= xqcut ! minimum kt jet measure between partons
#*********************************************************************
#
#*********************************************************************
# handling of the helicities:
#  0: sum over all helicities
#  1: importance sampling over helicities
#*********************************************************************
  0	= nhel ! using helicities importance sampling or not.
#*********************************************************************
# Generation bias, check the wiki page below for more information:   *
#  'cp3.irmp.ucl.ac.be/projects/madgraph/wiki/LOEventGenerationBias' *
#*********************************************************************
  None	= bias_module ! Bias type of bias, [None, ptj_bias, -custom_folder-]
  {}	= bias_parameters ! Specifies the parameters of the module.
#
#*******************************                                                 
# Parton level cuts definition *
#*******************************                                     
#                                                                    
#
#*********************************************************************
# BW cutoff (M+/-bwcutoff*Gamma) ! Define on/off-shell for "$" and decay  
#*********************************************************************
  15.0	= bwcutoff ! (M+/-bwcutoff*Gamma)
#*********************************************************************
# Apply pt/E/eta/dr/mij/kt_durham cuts on decay products or not
# (note that etmiss/ptll/ptheavy/ht/sorted cuts always apply)
#*********************************************************************
  False	= cut_decays ! Cut decay products 
#*********************************************************************
# Standard Cuts                                                      *
#*********************************************************************
# Minimum and maximum pt's (for max, -1 means no cut)                *
#*********************************************************************
  0.0	= ptj ! minimum pt for the jets 
  0.0	= ptb ! minimum pt for the b 
  0.0	= pta ! minimum pt for the photons 
  0.0	= ptl ! minimum pt for the charged leptons 
  0.0	= misset ! minimum missing Et (sum of neutrino's momenta)
  -1.0	= ptjmax ! maximum pt for the jets
  -1.0	= ptbmax ! maximum pt for the b
  -1.0	= ptamax ! maximum pt for the photons
  -1.0	= ptlmax ! maximum pt for the charged leptons
  -1.0	= missetmax ! maximum missing Et (sum of neutrino's momenta)
  {}	= pt_min_pdg ! pt cut for other particles (use pdg code). Applied on particle and anti-particle
  {}	= pt_max_pdg ! pt cut for other particles (syntax e.g. {6: 100, 25: 50}) 
#*********************************************************************
# Minimum and maximum E's (in the center of mass frame)              *
#*********************************************************************
  0.0	= ej ! minimum E for the jets 
  0.0	= eb ! minimum E for the b 
  0.0	= ea ! minimum E for the photons 
  0.0	= el ! minimum E for the charged leptons 
  -1.0	= ejmax ! maximum E for the jets
  -1.0	= ebmax ! maximum E for the b
  -1.0	= eamax ! maximum E for the photons
  -1.0	= elmax ! maximum E for the charged leptons
  {}	= e_min_pdg ! E cut for other particles (use pdg code). Applied on particle and anti-particle
  {}	= e_max_pdg ! E cut for other particles (syntax e.g. {6: 100, 25: 50}) 
#*********************************************************************
# Maximum and minimum absolute rapidity (for max, -1 means no cut)   *
#*********************************************************************
  -1.0	= etaj ! max rap for the jets 
  -1.0	= etab ! max rap for the b
  -1.0	= etaa ! max rap for the photons 
  -1.0	= etal ! max rap for the charged leptons 
  0.0	= etajmin ! min rap for the jets
  0.0	= etabmin ! min rap for the b
  0.0	= etaamin ! min rap for the photons
  0.0	= etalmin ! main rap for the charged leptons
  {}	= eta_min_pdg ! rap cut for other particles (use pdg code). Applied on particle and anti-particle
  {}	= eta_max_pdg ! rap cut for other particles (syntax e.g. {6: 2.5, 23: 5})
#*********************************************************************
# Minimum and maximum DeltaR distance                                *
#*********************************************************************
  0.0	= drjj ! min distance between jets 
  0.0	= drbb ! min distance between b's 
  0.0	= drll ! min distance between leptons 
  0.0	= draa ! min distance between gammas 
  0.0	= drbj ! min distance between b and jet 
  0.0	= draj ! min distance between gamma and jet 
  0.0	= drjl ! min distance between jet and lepton 
  0.0	= drab ! min distance between gamma and b 
  0.0	= drbl ! min distance between b and lepton 
  0.0	= dral ! min distance between gamma and lepton 
  -1.0	= drjjmax ! max distance between jets
  -1.0	= drbbmax ! max distance between b's
  -1.0	= drllmax ! max distance between leptons
  -1.0	= draamax ! max distance between gammas
  -1.0	= drbjmax ! max distance between b and jet
  -1.0	= drajmax ! max distance between gamma and jet
  -1.0	= drjlmax ! max distance between jet and lepton
  -1.0	= drabmax ! max distance between gamma and b
  -1.0	= drblmax ! max distance between b and lepton
  -1.0	= dralmax ! maxdistance between gamma and lepton
#*********************************************************************
# Minimum and maximum invariant mass for pairs                       *
# WARNING: for four lepton final state mmll cut require to have      *
#          different lepton masses for each flavor!                  *           
#*********************************************************************
  0.0	= mmjj ! min invariant mass of a jet pair 
  0.0	= mmbb ! min invariant mass of a b pair 
  0.0	= mmaa ! min invariant mass of gamma gamma pair
  0.0	= mmll ! min invariant mass of l+l- (same flavour) lepton pair
  -1.0	= mmjjmax ! max invariant mass of a jet pair
  -1.0	= mmbbmax ! max invariant mass of a b pair
  -1.0	= mmaamax ! max invariant mass of gamma gamma pair
  -1.0	= mmllmax ! max invariant mass of l+l- (same flavour) lepton pair
  {}	= mxx_min_pdg ! min invariant mass of a pair of particles X/X~ (e.g. {6:250})
  {'default': False}	= mxx_only_part_antipart ! if True the invariant mass is applied only 
                       ! to pairs of particle/antiparticle and not to pairs of the same pdg codes.  
#*********************************************************************
# Minimum and maximum invariant mass for all letpons                 *
#*********************************************************************
  0.0	= mmnl ! min invariant mass for all letpons (l+- and vl) 
  -1.0	= mmnlmax ! max invariant mass for all letpons (l+- and vl) 
#*********************************************************************
# Minimum and maximum pt for 4-momenta sum of leptons                *
#*********************************************************************
  0.0	= ptllmin ! Minimum pt for 4-momenta sum of leptons(l and vl)
  -1.0	= ptllmax ! Maximum pt for 4-momenta sum of leptons(l and vl)
#*********************************************************************
# Inclusive cuts                                                     *
#*********************************************************************
  0.0	= ptheavy ! minimum pt for at least one heavy final state
  0.0	= xptj ! minimum pt for at least one jet  
  0.0	= xptb ! minimum pt for at least one b 
  0.0	= xpta ! minimum pt for at least one photon 
  0.0	= xptl ! minimum pt for at least one charged lepton 
#*********************************************************************
# Control the pt's of the jets sorted by pt                          *
#*********************************************************************
  0.0	= ptj1min ! minimum pt for the leading jet in pt
  0.0	= ptj2min ! minimum pt for the second jet in pt
  0.0	= ptj3min ! minimum pt for the third jet in pt
  0.0	= ptj4min ! minimum pt for the fourth jet in pt
  -1.0	= ptj1max ! maximum pt for the leading jet in pt 
  -1.0	= ptj2max ! maximum pt for the second jet in pt
  -1.0	= ptj3max ! maximum pt for the third jet in pt
  -1.0	= ptj4max ! maximum pt for the fourth jet in pt
  0	= cutuse ! reject event if fails any (0) / all (1) jet pt cuts
#*********************************************************************
# Control the pt's of leptons sorted by pt                           *
#*********************************************************************
  0.0	= ptl1min ! minimum pt for the leading lepton in pt
  0.0	= ptl2min ! minimum pt for the second lepton in pt
  0.0	= ptl3min ! minimum pt for the third lepton in pt
  0.0	= ptl4min ! minimum pt for the fourth lepton in pt
  -1.0	= ptl1max ! maximum pt for the leading lepton in pt 
  -1.0	= ptl2max ! maximum pt for the second lepton in pt
  -1.0	= ptl3max ! maximum pt for the third lepton in pt
  -1.0	= ptl4max ! maximum pt for the fourth lepton in pt
#*********************************************************************
# Control the Ht(k)=Sum of k leading jets                            *
#*********************************************************************
  0.0	= htjmin ! minimum jet HT=Sum(jet pt)
  -1.0	= htjmax ! maximum jet HT=Sum(jet pt)
  0.0	= ihtmin !inclusive Ht for all partons (including b)
  -1.0	= ihtmax !inclusive Ht for all partons (including b)
  0.0	= ht2min ! minimum Ht for the two leading jets
  0.0	= ht3min ! minimum Ht for the three leading jets
  0.0	= ht4min ! minimum Ht for the four leading jets
  -1.0	= ht2max ! maximum Ht for the two leading jets
  -1.0	= ht3max ! maximum Ht for the three leading jets
  -1.0	= ht4max ! maximum Ht for the four leading jets
#***********************************************************************
# Photon-isolation cuts, according to hep-ph/9801442                   *
# When ptgmin=0, all the other parameters are ignored                  *
# When ptgmin>0, pta and draj are not going to be used                 *
#***********************************************************************
  0.0	= ptgmin ! Min photon transverse momentum
  0.4	= r0gamma ! Radius of isolation code
  1.0	= xn ! n parameter of eq.(3.4) in hep-ph/9801442
  1.0	= epsgamma ! epsilon_gamma parameter of eq.(3.4) in hep-ph/9801442
  True	= isoem ! isolate photons from EM energy (photons and leptons)
#*********************************************************************
# WBF cuts                                                           *
#*********************************************************************
  0.0	= xetamin ! minimum rapidity for two jets in the WBF case  
  0.0	= deltaeta ! minimum rapidity for two jets in the WBF case 
#***********************************************************************
# Turn on either the ktdurham or ptlund cut to activate                *
# CKKW(L) merging with Pythia8 [arXiv:1410.3012, arXiv:1109.4829]      *
#***********************************************************************
  -1.0	= ktdurham 
  0.4	= dparameter 
  -1.0	= ptlund 
  1, 2, 3, 4, 5, 6, 21	= pdgs_for_merging_cut ! PDGs for two cuts above   
#*********************************************************************
# maximal pdg code for quark to be considered as a light jet         *
# (otherwise b cuts are applied)                                     *
#*********************************************************************
  4	= maxjetflavor ! Maximum jet pdg code
#*********************************************************************
#
#*********************************************************************
# Store info for systematics studies                                 *
# WARNING: Do not use for interference type of computation           *
#*********************************************************************
  False	= use_syst ! Enable systematics studies
#
#**************************************
# Parameter of the systematics study
#  will be used by SysCalc (if installed)
#**************************************                                  
#
  0.5 1 2	= sys_scalefact # factorization/renormalization scale factor
  None	= sys_alpsfact # \alpha_s emission scale factors
  auto	= sys_matchscale # variation of merging scale
# PDF sets and number of members (0 or none for all members).
  NNPDF23_lo_as_0130_qed	= sys_pdf # list of pdf sets
# MSTW2008nlo68cl.LHgrid 1  = sys_pdf
#
]]>
</MGRunCard>
<slha>
######################################################################
## PARAM_CARD AUTOMATICALY GENERATED BY MG5                       ####
######################################################################
###################################
## INFORMATION FOR CKMBLOCK
###################################
BLOCK CKMBLOCK # 
      1 2.277360e-01 # cabi
###################################
## INFORMATION FOR FRBLOCK
###################################
BLOCK FRBLOCK # 
      1 1.000000e-03 # gaa
      2 0.000000e+00 # gzz
      3 0.000000e+00 # gaz
      4 0.000000e+00 # gww
###################################
## INFORMATION FOR MASS
###################################
BLOCK MASS # 
      1 5.040000e-03 # md
      2 2.550000e-03 # mu
      3 1.010000e-01 # ms
      4 1.270000e+00 # mc
      5 4.700000e+00 # mb
      6 1.720000e+02 # mt
      11 5.110000e-04 # me
      13 1.056600e-01 # mmu
      15 1.777000e+00 # mta
      23 9.118760e+01 # mz
      25 1.250000e+02 # mh
      9000006 5.000000e+00 # msk
      12 0.000000e+00 # ve : 0.0
      14 0.000000e+00 # vm : 0.0
      16 0.000000e+00 # vt : 0.0
      21 0.000000e+00 # g : 0.0
      22 0.000000e+00 # a : 0.0
      24 7.982436e+01 # w+ : cmath.sqrt(mz__exp__2/2. + cmath.sqrt(mz__exp__4/4. - (aew*cmath.pi*mz__exp__2)/(gf*sqrt__2)))
###################################
## INFORMATION FOR SMINPUTS
###################################
BLOCK SMINPUTS # 
      1 1.279000e+02 # aewm1
      2 1.166370e-05 # gf
      3 1.184000e-01 # as
###################################
## INFORMATION FOR YUKAWA
###################################
BLOCK YUKAWA # 
      1 5.040000e-03 # ymdo
      2 2.550000e-03 # ymup
      3 1.010000e-01 # yms
      4 1.270000e+00 # ymc
      5 4.700000e+00 # ymb
      6 1.720000e+02 # ymt
      11 5.110000e-04 # yme
      13 1.056600e-01 # ymm
      15 1.777000e+00 # ymtau
###################################
## INFORMATION FOR DECAY
###################################
DECAY 6 1.508336e+00 # wt
DECAY 23 2.495200e+00 # wz
DECAY 24 2.085000e+00 # ww
DECAY 25 4.070000e-03 # wh
DECAY 9000006 6.216990e-07 # wsk
DECAY 1 0.000000e+00 # d : 0.0
DECAY 2 0.000000e+00 # u : 0.0
DECAY 3 0.000000e+00 # s : 0.0
DECAY 4 0.000000e+00 # c : 0.0
DECAY 5 0.000000e+00 # b : 0.0
DECAY 11 0.000000e+00 # e- : 0.0
DECAY 12 0.000000e+00 # ve : 0.0
DECAY 13 0.000000e+00 # mu- : 0.0
DECAY 14 0.000000e+00 # vm : 0.0
DECAY 15 0.000000e+00 # ta- : 0.0
DECAY 16 0.000000e+00 # vt : 0.0
DECAY 21 0.000000e+00 # g : 0.0
DECAY 22 0.000000e+00 # a : 0.0
###################################
## INFORMATION FOR QNUMBERS 9000006
###################################
BLOCK QNUMBERS 9000006 #  sk
      1 0 # 3 times electric charge
      2 1 # number of spin states (2s+1)
      3 1 # colour rep (1: singlet, 3: triplet, 8: octet)
      4 0 # particle/antiparticle distinction (0=own anti)
</slha>
<MGGenerationInfo>
#  Number of Events        :       10000
#  Integrated weight (pb)  :       0.058088
</MGGenerationInfo>
</header>
<init>
-11 11 5.289700e+00 5.289700e+00 0 0 247000 247000 -4 1
5.808800e-02 1.237200e-04 5.808800e-02 1
<generator name='MadGraph5_aMC@NLO' version='2.6.1'>please cite 1405.0301 </generator>
</init>
<event>
 6      1 +5.8088000e-02 1.05794000e+01 7.81860800e-03 1.18400000e-01
      -11 -1    0    0    0    0 +0.0000000000e+00 +0.0000000000e+00 +5.2896999753e+00 5.2897000000e+00 5.1100000000e-04 0.0000e+00 1.0000e+00
       11 -1    0    0    0    0 -0.0000000000e+00 -0.0000000000e+00 -5.2896999753e+00 5.2897000000e+00 5.1100000000e-04 0.0000e+00 -1.0000e+00
  9000006  2    1    2    0    0 +3.8579933588e+00 -3.8086585203e-01 +1.3593358906e+00 6.4712415784e+00 5.0000001949e+00 7.2954e-07 0.0000e+00
       22  1    1    2    0    0 -3.8579933588e+00 +3.8086585203e-01 -1.3593358906e+00 4.1081584216e+00 0.0000000000e+00 0.0000e+00 -1.0000e+00
       22  1    3    3    0    0 +2.6531798569e-01 +1.7471644229e+00 -5.8991031695e-01 1.8630543030e+00 0.0000000000e+00 0.0000e+00 1.0000e+00
       22  1    3    3    0    0 +3.5926753731e+00 -2.1280302749e+00 +1.9492462075e+00 4.6081872754e+00 0.0000000000e+00 0.0000e+00 1.0000e+00
</event>
<event>
 6      1 +5.8088000e-02 1.05794000e+01 7.81860800e-03 1.18400000e-01
      -11 -1    0    0    0    0 +0.0000000000e+00 +0.0000000000e+00 +5.2896999753e+00 5.2897000000e+00 5.1100000000e-04 0.0000e+00 1.0000e+00
       11 -1    0    0    0    0 -0.0000000000e+00 -0.0000000000e+00 -5.2896999753e+00 5.2897000000e+00 5.1100000000e-04 0.0000e+00 -1.0000e+00
  9000006  2    1    2    0    0 +9.1155157064e-01 -2.3802561235e+00 +3.2218659963e+00 6.4712415345e+00 5.0000001020e+00 7.5758e-08 0.0000e+00
       22  1    1    2    0    0 -9.1155157064e-01 +2.3802561235e+00 -3.2218659963e+00 4.1081584655e+00 0.0000000000e+00 0.0000e+00 -1.0000e+00
       22  1    3    3    0    0 -9.4807115451e-02 -2.8754016736e+00 +4.1264363460e+00 5.0303479096e+00 0.0000000000e+00 0.0000e+00 -1.0000e+00
       22  1    3    3    0    0 +1.0063586861e+00 +4.9514555009e-01 -9.0457034968e-01 1.4408936249e+00 0.0000000000e+00 0.0000e+00 -1.0000e+00
</event>
<event>
 6      1 +5.8088000e-02 1.05794000e+01 7.81860800e-03 1.18400000e-01
      -11 -1    0    0    0    0 +0.0000000000e+00 +0.0000000000e+00 +5.2896999753e+00 5.2897000000e+00 5.1100000000e-04 0.0000e+00 1.0000e+00
       11 -1    0    0    0    0 -0.0000000000e+00 -0.0000000000e+00 -5.2896999753e+00 5.2897000000e+00 5.1100000000e-04 0.0000e+00 -1.0000e+00
  9000006  2    1    2    0    0 -3.0481258835e+00 -9.8027817533e-01 +2.5738986208e+00 6.4712409460e+00 4.9999988567e+00 4.1304e-07 0.0000e+00
       22  1    1    2    0    0 +3.0481258835e+00 +9.8027817533e-01 -2.5738986208e+00 4.1081590540e+00 0.0000000000e+00 0.0000e+00 -1.0000e+00
       22  1    3    3    0    0 -3.9820680193e+00 +1.2124376313e-02 +5.3358869026e-01 4.0176771399e+00 0.0000000000e+00 0.0000e+00 1.0000e+00
       22  1    3    3    0    0 +9.3394213570e-01 -9.9240255165e-01 +2.0403099306e+00 2.4535638060e+00 0.0000000000e+00 0.0000e+00 1.0000e+00
</event>
<event>
 6      1 +5.8088000e-02 1.05794000e+01 7.81860800e-03 1.18400000e-01
      -11 -1    0    0    0    0 +0.0000000000e+00 +0.0000000000e+00 +5.2896999753e+00 5.2897000000e+00 5.1100000000e-04 0.0000e+00 1.0000e+00
       11 -1    0    0    0    0 -0.0000000000e+00 -0.0000000000e+00 -5.2896999753e+00 5.2897000000e+00 5.1100000000e-04 0.0000e+00 -1.0000e+00
  9000006  2    1    2    0    0 -4.0666446367e-01 -1.3031888068e+00 +3.8747018437e+00 6.4712384368e+00 4.9999935476e+00 7.8417e-08 0.0000e+00
       22  1    1    2    0    0 +4.0666446367e-01 +1.3031888068e+00 -3.8747018437e+00 4.1081615632e+00 0.0000000000e+00 0.0000e+00 -1.0000e+00
       22  1    3    3    0    0 -6.8439659228e-01 -2.1958865343e+00 -1.8289563634e-01 2.3073290144e+00 0.0000000000e+00 0.0000e+00 1.0000e+00
       22  1    3    3    0    0 +2.7773212861e-01 +8.9269772746e-01 +4.0575974800e+00 4.1639094224e+00 0.0000000000e+00 0.0000e+00 1.0000e+00
</event>
<event>
 6      1 +5.8088000e-02 1.05794000e+01 7.81860800e-03 1.18400000e-01
      -11 -1    0    0    0    0 +0.0000000000e+00 +0.0000000000e+00 +5.2896999753e+00 5.2897000000e+00 5.1100000000e-04 0.0000e+00 1.0000e+00
       11 -1    0    0    0    0 -0.0000000000e+00 -0.0000000000e+00 -5.2896999753e+00 5.2897000000e+00 5.1100000000e-04 0.0000e+00 -1.0000e+00
  9000006  2    1    2    0    0 -4.4166910977e-01 -2.1997021188e+00 -3.4413958816e+00 6.4712414553e+00 4.9999999345e+00 1.4907e-07 0.0000e+00
       22  1    1    2    0    0 +4.4166910977e-01 +2.1997021188e+00 +3.4413958816e+00 4.1081585447e+00 0.0000000000e+00 0.0000e+00 1.0000e+00
       22  1    3    3    0    0 -1.0392690913e-01 +1.1428651277e+00 -2.8335427344e+00 3.0571074450e+00 0.0000000000e+00 0.0000e+00 1.0000e+00
       22  1    3    3    0    0 -3.3774220064e-01 -3.3425672465e+00 -6.0785314719e-01 3.4141340103e+00 0.0000000000e+00 0.0000e+00 1.0000e+00
</event>
<event>
 6      1 +5.8088000e-02 1.05794000e+01 7.81860800e-03 1.18400000e-01
      -11 -1    0    0    0    0 +0.0000000000e+00 +0.0000000000e+00 +5.2896999753e+00 5.2897000000e+00 5.1100000000e-04 0.0000e+00 1.0000e+00
       11 -1    0    0    0    0 -0.0000000000e+00 -0.0000000000e+00 -5.2896999753e+00 5.2897000000e+00 5.1100000000e-04 0.0000e+00 -1.0000e+00
  9000006  2    1    2    0    0 -3.1325956964e+00 -1.0805961538e+00 -2.4281929117e+00 6.4712416948e+00 5.0000004411e+00 1.9419e-07 0.0000e+00
       22  1    1    2    0    0 +3.1325956964e+00 +1.0805961538e+00 +2.4281929117e+00 4.1081583052e+00 0.0000000000e+00 0.0000e+00 1.0000e+00
       22  1    3    3    0    0 -1.0282324690e+00 -2.2982660236e-01 +1.5599368758e+00 1.8824147614e+00 0.0000000000e+00 0.0000e+00 -1.0000e+00
       22  1    3    3    0    0 -2.1043632273e+00 -8.5076955142e-01 -3.9881297875e+00 4.5888269334e+00 0.0000000000e+00 0.0000e+00 -1.0000e+00
</event>
<event>
 6      1 +5.8088000e-02 1.05794000e+01 7.81860800e-03 1.18400000e-01
      -11 -1    0    0    0    0 +0.0000000000e+00 +0.0000000000e+00 +5.2896999753e+00 5.2897000000e+00 5.1100000000e-04 0.0000e+00 1.0000e+00
       11 -1    0    0    0    0 -0.0000000000e+00 -0.0000000000e+00 -5.2896999753e+00 5.2897000000e+00 5.1100000000e-04 0.0000e+00 -1.0000e+00
  9000006  2    1    2    0    0 -1.1506688659e+00 -3.9170628572e+00 +4.5775899978e-01 6.4712418277e+00 5.0000007225e+00 1.3663e-06 0.0000e+00
       22  1    1    2    0    0 +1.1506688659e+00 +3.9170628572e+00 -4.5775899978e-01 4.1081581723e+00 0.0000000000e+00 0.0000e+00 -1.0000e+00
       22  1    3    3    0    0 -9.0261289816e-01 -1.8512020937e+00 +2.7107863253e+00 3.4044120986e+00 0.0000000000e+00 0.0000e+00 1.0000e+00
       22  1    3    3    0    0 -2.4805596772e-01 -2.0658607635e+00 -2.2530273256e+00 3.0668297291e+00 0.0000000000e+00 0.0000e+00 1.0000e+00
</event>
<event>
 6      1 +5.8088000e-02 1.05794000e+01 7.81860800e-03 1.18400000e-01
      -11 -1    0    0    0    0 +0.0000000000e+00 +0.0000000000e+00 +5.2896999753e+00 5.2897000000e+00 5.1100000000e-04 0.0000e+00 1.0000e+00
       11 -1    0    0    0    0 -0.0000000000e+00 -0.0000000000e+00 -5.2896999753e+00 5.2897000000e+00 5.1100000000e-04 0.0000e+00 -1.0000e+00
  9000006  2    1    2    0    0 +3.0169619908e-02 -1.2670499505e+00 -3.9077668044e+00 6.4712413881e+00 4.9999997923e+00 7.6254e-07 0.0000e+00
       22  1    1    2    0    0 -3.0169619908e-02 +1.2670499505e+00 +3.9077668044e+00 4.1081586119e+00 0.0000000000e+00 0.0000e+00 1.0000e+00
       22  1    3    3    0    0 -1.6999439993e+00 +1.1632936365e+00 -9.4345787099e-01 2.2656509969e+00 0.0000000000e+00 0.0000e+00 1.0000e+00
       22  1    3    3    0    0 +1.7301136192e+00 -2.4303435870e+00 -2.9643089334e+00 4.2055903912e+00 0.0000000000e+00 0.0000e+00 1.0000e+00
</event>
<event>
 6      1 +5.8088000e-02 1.05794000e+01 7.81860800e-03 1.18400000e-01
      -11 -1    0    0    0    0 +0.0000000000e+00 +0.0000000000e+00 +5.2896999753e+00 5.2897000000e+00 5.1100000000e-04 0.0000e+00 -1.0000e+00
       11 -1    0    0    0    0 -0.0000000000e+00 -0.0000000000e+00 -5.2896999753e+00 5.2897000000e+00 5.1100000000e-04 0.0000e+00 1.0000e+00
  9000006  2    1    2    0    0 -1.2900795612e-01 -2.0022604183e+00 +3.5848678929e+00 6.4712413316e+00 4.9999996727e+00 1.2189e-07 0.0000e+00
       22  1    1    2    0    0 +1.2900795612e-01 +2.0022604183e+00 -3.5848678929e+00 4.1081586684e+00 0.0000000000e+00 0.0000e+00 1.0000e+00
       22  1    3    3    0    0 -9.9482070661e-01 -2.3311784467e-01 -1.0317120045e+00 1.4520474607e+00 0.0000000000e+00 0.0000e+00 -1.0000e+00
       22  1    3    3    0    0 +8.6581275050e-01 -1.7691425736e+00 +4.6165798974e+00 5.0191938709e+00 0.0000000000e+00 0.0000e+00 -1.0000e+00
</event>
<event>
 6      1 +5.8088000e-02 1.05794000e+01 7.81860800e-03 1.18400000e-01
      -11 -1    0    0    0    0 +0.0000000000e+00 +0.0000000000e+00 +5.2896999753e+00 5.2897000000e+00 5.1100000000e-04 0.0000e+00 -1.0000e+00
       11 -1    0    0    0    0 -0.0000000000e+00 -0.0000000000e+00 -5.2896999753e+00 5.2897000000e+00 5.1100000000e-04 0.0000e+00 1.0000e+00
  9000006  2    1    2    0    0 +2.9692507171e+00 -2.4111055633e+00 -1.4990283608e+00 6.4712415458e+00 5.0000001260e+00 5.5089e-08 0.0000e+00
       22  1    1    2    0    0 -2.9692507171e+00 +2.4111055633e+00 +1.4990283608e+00 4.1081584542e+00 0.0000000000e+00 0.0000e+00 -1.0000e+00
       22  1    3    3    0    0 +7.1062429759e-01 +1.5392659258e+00 -7.7268678366e-01 1.8631616538e+00 0.0000000000e+00 0.0000e+00 -1.0000e+00
       22  1    3    3    0    0 +2.2586264195e+00 -3.9503714891e+00 -7.2634157711e-01 4.6080798920e+00 0.0000000000e+00 0.0000e+00 -1.0000e+00
</event>
<event>
 6      1 +5.8088000e-02 1.05794000e+01 7.81860800e-03 1.18400000e-01
      -11 -1    0    0    0    0 +0.0000000000e+00 +0.0000000000e+00 +5.2896999753e+00 5.2897000000e+00 5.1100000000e-04 0.0000e+00 -1.0000e+00
       11 -1    0    0    0    0 -0.0000000000e+00 -0.0000000000e+00 -5.2896999753e+00 5.2897000000e+00 5.1100000000e-04 0.0000e+00 1.0000e+00
  9000006  2    1    2    0    0 -2.0127803967e+00 -2.1707556299e+00 -2.8484241922e+00 6.4712391817e+00 4.9999951239e+00 1.1370e-07 0.0000e+00
       22  1    1    2    0    0 +2.0127803967e+00 +2.1707556299e+00 +2.8484241922e+00 4.1081608183e+00 0.0000000000e+00 0.0000e+00 -1.0000e+00
       22  1    3    3    0    0 +7.9452696082e-01 +1.0595310797e+00 +1.0665098447e-02 1.3243839868e+00 0.0000000000e+00 0.0000e+00 -1.0000e+00
       22  1    3    3    0    0 -2.8073073575e+00 -3.2302867096e+00 -2.8590892906e+00 5.1468551949e+00 0.0000000000e+00 0.0000e+00 -1.0000e+00
</event>
<event>
 6      1 +5.8088000e-02 1.05794000e+01 7.81860800e-03 1.18400000e-01
      -11 -1    0    0    0    0 +0.0000000000e+00 +0.0000000000e+00 +5.2896999753e+00 5.2897000000e+00 5.1100000000e-04 0.0000e+00 1.0000e+00
       11 -1    0    0    0    0 -0.0000000000e+00 -0.0000000000e+00 -5.2896999753e+00 5.2897000000e+00 5.1100000000e-04 0.0000e+00 -1.0000e+00
  9000006  2    1    2    0    0 -1.5927324129e-01 +3.6740962319e+00 +1.8310159810e+00 6.4712409708e+00 4.9999989093e+00 1.8305e-07 0.0000e+00
       22  1    1    2    0    0 +1.5927324129e-01 -3.6740962319e+00 -1.8310159810e+00 4.1081590292e+00 0.0000000000e+00 0.0000e+00 -1.0000e+00
       22  1    3    3    0    0 +1.6404666563e+00 +2.2111559031e+00 +2.8278436070e+00 3.9467759937e+00 0.0000000000e+00 0.0000e+00 1.0000e+00
       22  1    3    3    0    0 -1.7997398976e+00 +1.4629403287e+00 -9.9682762608e-01 2.5244649771e+00 0.0000000000e+00 0.0000e+00 1.0000e+00
</event>
<event>
 6      1 +5.8088000e-02 1.05794000e+01 7.81860800e-03 1.18400000e-01
      -11 -1    0    0    0    0 +0.0000000000e+00 +0.0000000000e+00 +5.2896999753e+00 5.2897000000e+00 5.1100000000e-04 0.0000e+00 1.0000e+00
       11 -1    0    0    0    0 -0.0000000000e+00 -0.0000000000e+00 -5.2896999753e+00 5.2897000000e+00 5.1100000000e-04 0.0000e+00 -1.0000e+00
  9000006  2    1    2    0    0 +2.3210714174e+00 -3.2466521030e+00 -9.7408449685e-01 6.4712418957e+00 5.0000008663e+00 2.5299e-07 0.0000e+00
       22  1    1    2    0    0 -2.3210714174e+00 +3.2466521030e+00 +9.7408449685e-01 4.1081581043e+00 0.0000000000e+00 0.0000e+00 -1.0000e+00
       22  1    3    3    0    0 +3.2184850476e+00 -3.8701415220e+00 -1.5086159314e+00 5.2547657826e+00 0.0000000000e+00 0.0000e+00 1.0000e+00
       22  1    3    3    0    0 -8.9741363017e-01 +6.2348941901e-01 +5.3453143453e-01 1.2164761131e+00 0.0000000000e+00 0.0000e+00 1.0000e+00
</event>
<event>
 6      1 +5.8088000e-02 1.05794000e+01 7.81860800e-03 1.18400000e-01
      -11 -1    0    0    0    0 +0.0000000000e+00 +0.0000000000e+00 +5.2896999753e+00 5.2897000000e+00 5.1100000000e-04 0.0000e+00 1.0000e+00
       11 -1    0    0    0    0 -0.0000000000e+00 -0.0000000000e+00 -5.2896999753e+00 5.2897000000e+00 5.1100000000e-04 0.0000e+00 -1.0000e+00
  9000006  2    1    2    0    0 +3.7662418244e+00 -8.5769420910e-01 +1.3988385499e+00 6.4712415166e+00 5.0000000641e+00 9.9998e-08 0.0000e+00
       22  1    1    2    0    0 -3.7662418244e+00 +8.5769420910e-01 -1.3988385499e+00 4.1081584834e+00 0.0000000000e+00 0.0000e+00 1.0000e+00
       22  1    3    3    0    0 -4.8756090855e-01 -1.7242969254e+00 -2.8598955701e-01 1.8145813713e+00 0.0000000000e+00 0.0000e+00 -1.0000e+00
       22  1    3    3    0    0 +4.2538027330e+00 +8.6660271626e-01 +1.6848281069e+00 4.6566601453e+00 0.0000000000e+00 0.0000e+00 -1.0000e+00
</event>
<event>
 6      1 +5.8088000e-02 1.05794000e+01 7.81860800e-03 1.18400000e-01
      -11 -1    0    0    0    0 +0.0000000000e+00 +0.0000000000e+00 +5.2896999753e+00 5.2897000000e+00 5.1100000000e-04 0.0000e+00 -1.0000e+00
       11 -1    0    0    0    0 -0.0000000000e+00 -0.0000000000e+00 -5.2896999753e+00 5.2897000000e+00 5.1100000000e-04 0.0000e+00 1.0000e+00
  9000006  2    1    2    0    0 -2.0448013764e+00 +3.1245721702e+00 -1.7125425396e+00 6.4712415481e+00 5.0000001309e+00 5.0384e-07 0.0000e+00
       22  1    1    2    0    0 +2.0448013764e+00 -3.1245721702e+00 +1.7125425396e+00 4.1081584519e+00 0.0000000000e+00 0.0000e+00 -1.0000e+00
       22  1    3    3    0    0 +2.4015493493e-01 -1.2666512656e+00 -4.0480682566e-01 1.3512765770e+00 0.0000000000e+00 0.0000e+00 1.0000e+00
       22  1    3    3    0    0 -2.2849563113e+00 +4.3912234358e+00 -1.3077357139e+00 5.1199649711e+00 0.0000000000e+00 0.0000e+00 1.0000e+00
</event>
<event>
 6      1 +5.8088000e-02 1.05794000e+01 7.81860800e-03 1.18400000e-01
      -11 -1    0    0    0    0 +0.0000000000e+00 +0.0000000000e+00 +5.2896999753e+00 5.2897000000e+00 5.1100000000e-04 0.0000e+00 1.0000e+00
       11 -1    0    0    0    0 -0.0000000000e+00 -0.0000000000e+00 -5.2896999753e+00 5.2897000000e+00 5.1100000000e-04 0.0000e+00 -1.0000e+00
  9000006  2    1    2    0    0 +1.1628800541e+00 +4.2924632340e-01 +3.9166855343e+00 6.4712412882e+00 4.9999995810e+00 2.4127e-07 0.0000e+00
       22  1    1    2    0    0 -1.1628800541e+00 -4.2924632340e-01 -3.9166855343e+00 4.1081587118e+00 0.0000000000e+00 0.0000e+00 -1.0000e+00
       22  1    3    3    0    0 +1.1256505313e+00 -1.1792108947e+00 +4.4793666151e+00 4.7667969042e+00 0.0000000000e+00 0.0000e+00 1.0000e+00
       22  1    3    3    0    0 +3.7229522784e-02 +1.6084572181e+00 -5.6268108084e-01 1.7044443841e+00 0.0000000000e+00 0.0000e+00 1.0000e+00
</event>
<event>
 6      1 +5.8088000e-02 1.05794000e+01 7.81860800e-03 1.18400000e-01
      -11 -1    0    0    0    0 +0.0000000000e+00 +0.0000000000e+00 +5.2896999753e+00 5.2897000000e+00 5.1100000000e-04 0.0000e+00 -1.0000e+00
       11 -1    0    0    0    0 -0.0000000000e+00 -0.0000000000e+00 -5.2896999753e+00 5.2897000000e+00 5.1100000000e-04 0.0000e+00 1.0000e+00
  9000006  2    1    2    0    0 -2.2373575367e+00 -5.2052463913e-01 -3.4059143302e+00 6.4712414014e+00 4.9999998204e+00 4.3988e-07 0.0000e+00
       22  1    1    2    0    0 +2.2373575367e+00 +5.2052463913e-01 +3.4059143302e+00 4.1081585986e+00 0.0000000000e+00 0.0000e+00 -1.0000e+00
       22  1    3    3    0    0 -5.1721557695e-01 +1.8697322479e+00 -2.8912070019e+00 3.4817364288e+00 0.0000000000e+00 0.0000e+00 1.0000e+00
       22  1    3    3    0    0 -1.7201419597e+00 -2.3902568870e+00 -5.1470732821e-01 2.9895049726e+00 0.0000000000e+00 0.0000e+00 1.0000e+00
</event>
<event>
 6      1 +5.8088000e-02 1.05794000e+01 7.81860800e-03 1.18400000e-01
      -11 -1    0    0    0    0 +0.0000000000e+00 +0.0000000000e+00 +5.2896999753e+00 5.2897000000e+00 5.1100000000e-04 0.0000e+00 -1.0000e+00
       11 -1    0    0    0    0 -0.0000000000e+00 -0.0000000000e+00 -5.2896999753e+00 5.2897000000e+00 5.1100000000e-04 0.0000e+00 1.0000e+00
  9000006  2    1    2    0    0 +7.3950824204e-01 +3.1704859216e+00 -2.5056159982e+00 6.4712416596e+00 5.0000003668e+00 5.7922e-08 0.0000e+00
       22  1    1    2    0    0 -7.3950824204e-01 -3.1704859216e+00 +2.5056159982e+00 4.1081583404e+00 0.0000000000e+00 0.0000e+00 -1.0000e+00
       22  1    3    3    0    0 -1.6157009640e+00 +1.3200106644e+00 +5.8556450609e-01 2.1669802837e+00 0.0000000000e+00 0.0000e+00 1.0000e+00
       22  1    3    3    0    0 +2.3552092061e+00 +1.8504752572e+00 -3.0911805043e+00 4.3042613759e+00 0.0000000000e+00 0.0000e+00 1.0000e+00
</event>
<event>
 6      1 +5.8088000e-02 1.05794000e+01 7.81860800e-03 1.18400000e-01
      -11 -1    0    0    0    0 +0.0000000000e+00 +0.0000000000e+00 +5.2896999753e+00 5.2897000000e+00 5.1100000000e-04 0.0000e+00 1.0000e+00
       11 -1    0    0    0    0 -0.0000000000e+00 -0.0000000000e+00 -5.2896999753e+00 5.2897000000e+00 5.1100000000e-04 0.0000e+00 -1.0000e+00
  9000006  2    1    2    0    0 -5.0177826575e-01 -3.1105667818e+00 +2.6362017489e+00 6.4712414353e+00 4.9999998920e+00 9.4710e-08 0.0000e+00
       22  1    1    2    0    0 +5.0177826575e-01 +3.1105667818e+00 -2.6362017489e+00 4.1081585647e+00 0.0000000000e+00 0.0000e+00 -1.0000e+00
       22  1    3    3    0    0 -7.1061965551e-01 -3.7314924280e+00 +4.5324103635e-02 3.7988248590e+00 0.0000000000e+00 0.0000e+00 1.0000e+00
       22  1    3    3    0    0 +2.0884138975e-01 +6.2092564620e-01 +2.5908776452e+00 2.6724165762e+00 0.0000000000e+00 0.0000e+00 1.0000e+00
</event>
<event>
 6      1 +5.8088000e-02 1.05794000e+01 7.81860800e-03 1.18400000e-01
      -11 -1    0    0    0    0 +0.0000000000e+00 +0.0000000000e+00 +5.2896999753e+00 5.2897000000e+00 5.1100000000e-04 0.0000e+00 1.0000e+00
       11 -1    0    0    0    0 -0.0000000000e+00 -0.0000000000e+00 -5.2896999753e+00 5.2897000000e+00 5.1100000000e-04 0.0000e+00 -1.0000e+00
  9000006  2    1    2    0    0 -3.1777031683e-01 +3.6766049960e+00 -1.8051489383e+00 6.4712416584e+00 5.0000003641e+00 6.0683e-07 0.0000e+00
       22  1    1    2    0    0 +3.1777031683e-01 -3.6766049960e+00 +1.8051489383e+00 4.1081583416e+00 0.0000000000e+00 0.0000e+00 1.0000e+00
       22  1    3    3    0    0 +1.0732345201e+00 +3.1948910989e+00 -3.0483924653e+00 4.5444315477e+00 0.0000000000e+00 0.0000e+00 1.0000e+00
       22  1    3    3    0    0 -1.3910048369e+00 +4.8171389710e-01 +1.2432435271e+00 1.9268101107e+00 0.0000000000e+00 0.0000e+00 1.0000e+00
</event>
<event>
 6      1 +5.8088000e-02 1.05794000e+01 7.81860800e-03 1.18400000e-01
      -11 -1    0    0    0    0 +0.0000000000e+00 +0.0000000000e+00 +5.2896999753e+00 5.2897000000e+00 5.1100000000e-04 0.0000e+00 1.0000e+00
       11 -1    0    0    0    0 -0.0000000000e+00 -0.0000000000e+00 -5.2896999753e+00 5.2897000000e+00 5.1100000000e-04 0.0000e+00 -1.0000e+00
  9000006  2    1    2    0    0 +3.1368412005e+00 +2.3156803609e+00 +1.2941480940e+00 6.4712413443e+00 4.9999996997e+00 1.4881e-07 0.0000e+00
       22  1    1    2    0    0 -3.1368412005e+00 -2.3156803609e+00 -1.2941480940e+00 4.1081586557e+00 0.0000000000e+00 0.0000e+00 -1.0000e+00
       22  1    3    3    0    0 +2.2733218529e+00 +2.4877203803e+00 -1.3907361980e+00 3.6456675808e+00 0.0000000000e+00 0.0000e+00 -1.0000e+00
       22  1    3    3    0    0 +8.6351934760e-01 -1.7204001945e-01 +2.6848842919e+00 2.8255737635e+00 0.0000000000e+00 0.0000e+00 -1.0000e+00
</event>
<event>
 6      1 +5.8088000e-02 1.05794000e+01 7.81860800e-03 1.18400000e-01
      -11 -1    0    0    0    0 +0.0000000000e+00 +0.0000000000e+00 +5.2896999753e+00 5.2897000000e+00 5.1100000000e-04 0.0000e+00 -1.0000e+00
       11 -1    0    0    0    0 -0.0000000000e+00 -0.0000000000e+00 -5.2896999753e+00 5.2897000000e+00 5.1100000000e-04 0.0000e+00 1.0000e+00
  9000006  2    1    2    0    0 -8.9978532937e-01 +3.6897504492e+00 -1.5662364296e+00 6.4712412191e+00 4.9999994346e+00 1.4441e-08 0.0000e+00
       22  1    1    2    0    0 +8.9978532937e-01 -3.6897504492e+00 +1.5662364296e+00 4.1081587809e+00 0.0000000000e+00 0.0000e+00 -1.0000e+00
       22  1    3    3    0    0 +1.7305504604e-01 +4.5592943135e+00 -2.0581008338e+00 5.0052863783e+00 0.0000000000e+00 0.0000e+00 1.0000e+00
       22  1    3    3    0    0 -1.0728403754e+00 -8.6954386433e-01 +4.9186440430e-01 1.4659548408e+00 0.0000000000e+00 0.0000e+00 1.0000e+00
</event>
<event>
 6      1 +5.8088000e-02 1.05794000e+01 7.81860800e-03 1.18400000e-01
      -11 -1    0    0    0    0 +0.0000000000e+00 +0.0000000000e+00 +5.2896999753e+00 5.2897000000e+00 5.1100000000e-04 0.0000e+00 1.0000e+00
       11 -1    0    0    0    0 -0.0000000000e+00 -0.0000000000e+00 -5.2896999753e+00 5.2897000000e+00 5.1100000000e-04 0.0000e+00 -1.0000e+00
  9000006  2    1    2    0    0 +2.0267048344e+00 +3.2968573921e+00 +1.3784615407e+00 6.4712425822e+00 5.0000023189e+00 1.7392e-07 0.0000e+00
       22  1    1    2    0    0 -2.0267048344e+00 -3.2968573921e+00 -1.3784615407e+00 4.1081574178e+00 0.0000000000e+00 0.0000e+00 -1.0000e+00
       22  1    3    3    0    0 +6.0566267802e-01 -1.0020314495e+00 +1.5473665693e+00 1.9404220173e+00 0.0000000000e+00 0.0000e+00 1.0000e+00
       22  1    3    3    0    0 +1.4210421564e+00 +4.2988888416e+00 -1.6890502858e-01 4.5308205649e+00 0.0000000000e+00 0.0000e+00 1.0000e+00
</event>
<event>
 6      1 +5.8088000e-02 1.05794000e+01 7.81860800e-03 1.18400000e-01
      -11 -1    0    0    0    0 +0.0000000000e+00 +0.0000000000e+00 +5.2896999753e+00 5.2897000000e+00 5.1100000000e-04 0.0000e+00 1.0000e+00
       11 -1    0    0    0    0 -0.0000000000e+00 -0.0000000000e+00 -5.2896999753e+00 5.2897000000e+00 5.1100000000e-04 0.0000e+00 -1.0000e+00
  9000006  2    1    2    0    0 +8.3671881460e-02 -3.6879127746e-02 +4.1071408861e+00 6.4712413721e+00 4.9999997584e+00 1.9842e-07 0.0000e+00
       22  1    1    2    0    0 -8.3671881460e-02 +3.6879127746e-02 -4.1071408861e+00 4.1081586279e+00 0.0000000000e+00 0.0000e+00 -1.0000e+00
       22  1    3    3    0    0 -1.3735767054e+00 -6.1367881962e-01 -5.1537961122e-01 1.5902612373e+00 0.0000000000e+00 0.0000e+00 -1.0000e+00
       22  1    3    3    0    0 +1.4572485868e+00 +5.7679969187e-01 +4.6225204973e+00 4.8809801348e+00 0.0000000000e+00 0.0000e+00 -1.0000e+00
</event>
<event>
 6      1 +5.8088000e-02 1.05794000e+01 7.81860800e-03 1.18400000e-01
      -11 -1    0    0    0    0 +0.0000000000e+00 +0.0000000000e+00 +5.2896999753e+00 5.2897000000e+00 5.1100000000e-04 0.0000e+00 -1.0000e+00
       11 -1    0    0    0    0 -0.0000000000e+00 -0.0000000000e+00 -5.2896999753e+00 5.2897000000e+00 5.1100000000e-04 0.0000e+00 1.0000e+00
  9000006  2    1    2    0    0 -1.1746701981e+00 -3.4906518526e+00 -1.8200201325e+00 6.4712405930e+00 4.9999981100e+00 1.5218e-07 0.0000e+00
       22  1    1    2    0    0 +1.1746701981e+00 +3.4906518526e+00 +1.8200201325e+00 4.1081594070e+00 0.0000000000e+00 0.0000e+00 -1.0000e+00
       22  1    3    3    0    0 +5.0953467289e-01 -3.0978861825e+00 +8.8390350119e-01 3.2615655416e+00 0.0000000000e+00 0.0000e+00 1.0000e+00
       22  1    3    3    0    0 -1.6842048710e+00 -3.9276567011e-01 -2.7039236337e+00 3.2096750514e+00 0.0000000000e+00 0.0000e+00 1.0000e+00
</event>
<event>
 6      1 +5.8088000e-02 1.05794000e+01 7.81860800e-03 1.18400000e-01
      -11 -1    0    0    0    0 +0.0000000000e+00 +0.0000000000e+00 +5.2896999753e+00 5.2897000000e+00 5.1100000000e-04 0.0000e+00 1.0000e+00
       11 -1    0    0    0    0 -0.0000000000e+00 -0.0000000000e+00 -5.2896999753e+00 5.2897000000e+00 5.1100000000e-04 0.0000e+00 -1.0000e+00
  9000006  2    1    2    0    0 -2.6728410373e+00 -3.1023384885e+00 +3.2921798907e-01 6.4712413137e+00 4.9999996348e+00 1.3313e-07 0.0000e+00
       22  1    1    2    0    0 +2.6728410373e+00 +3.1023384885e+00 -3.2921798907e-01 4.1081586863e+00 0.0000000000e+00 0.0000e+00 -1.0000e+00
       22  1    3    3    0    0 +3.7794440367e-01 +4.4830209030e-01 -1.3707184042e+00 1.4908674253e+00 0.0000000000e+00 0.0000e+00 -1.0000e+00
       22  1    3    3    0    0 -3.0507854410e+00 -3.5506405788e+00 +1.6999363932e+00 4.9803738883e+00 0.0000000000e+00 0.0000e+00 -1.0000e+00
</event>
<event>
 6      1 +5.8088000e-02 1.05794000e+01 7.81860800e-03 1.18400000e-01
      -11 -1    0    0    0    0 +0.0000000000e+00 +0.0000000000e+00 +5.2896999753e+00 5.2897000000e+00 5.1100000000e-04 0.0000e+00 -1.0000e+00
       11 -1    0    0    0    0 -0.0000000000e+00 -0.0000000000e+00 -5.2896999753e+00 5.2897000000e+00 5.1100000000e-04 0.0000e+00 1.0000e+00
  9000006  2    1    2    0    0 +3.0541336016e+00 -7.9876447819e-01 -2.6289177241e+00 6.4712416354e+00 5.0000003156e+00 4.6035e-07 0.0000e+00
       22  1    1    2    0    0 -3.0541336016e+00 +7.9876447819e-01 +2.6289177241e+00 4.1081583646e+00 0.0000000000e+00 0.0000e+00 -1.0000e+00
       22  1    3    3    0    0 -1.8561179278e-01 +1.1088985835e+00 -2.4634917425e+00 2.7079326749e+00 0.0000000000e+00 0.0000e+00 -1.0000e+00
       22  1    3    3    0    0 +3.2397453944e+00 -1.9076630617e+00 -1.6542598162e-01 3.7633089606e+00 0.0000000000e+00 0.0000e+00 -1.0000e+00
</event>
<event>
 6      1 +5.8088000e-02 1.05794000e+01 7.81860800e-03 1.18400000e-01
      -11 -1    0    0    0    0 +0.0000000000e+00 +0.0000000000e+00 +5.2896999753e+00 5.2897000000e+00 5.1100000000e-04 0.0000e+00 -1.0000e+00
       11 -1    0    0    0    0 -0.0000000000e+00 -0.0000000000e+00 -5.2896999753e+00 5.2897000000e+00 5.1100000000e-04 0.0000e+00 1.0000e+00
  9000006  2    1    2    0    0 -1.5030300791e+00 -2.5891370482e+00 -2.8132252887e+00 6.4712414590e+00 4.9999999423e+00 6.2769e-08 0.0000e+00
       22  1    1    2    0    0 +1.5030300791e+00 +2.5891370482e+00 +2.8132252887e+00 4.1081585410e+00 0.0000000000e+00 0.0000e+00 -1.0000e+00
       22  1    3    3    0    0 -2.1714149466e+00 -3.8382873152e+00 -2.0750594104e+00 4.8737422933e+00 0.0000000000e+00 0.0000e+00 1.0000e+00
       22  1    3    3    0    0 +6.6838486750e-01 +1.2491502670e+00 -7.3816587825e-01 1.5974991657e+00 0.0000000000e+00 0.0000e+00 1.0000e+00
</event>
<event>
 6      1 +5.8088000e-02 1.05794000e+01 7.81860800e-03 1.18400000e-01
      -11 -1    0    0    0    0 +0.0000000000e+00 +0.0000000000e+00 +5.2896999753e+00 5.2897000000e+00 5.1100000000e-04 0.0000e+00 1.0000e+00
       11 -1    0    0    0    0 -0.0000000000e+00 -0.0000000000e+00 -5.2896999753e+00 5.2897000000e+00 5.1100000000e-04 0.0000e+00 -1.0000e+00
  9000006  2    1    2    0    0 -2.7460472734e+00 +8.8067500832e-01 -2.9258506300e+00 6.4712415309e+00 5.0000000944e+00 3.8342e-07 0.0000e+00
       22  1    1    2    0    0 +2.7460472734e+00 -8.8067500832e-01 +2.9258506300e+00 4.1081584691e+00 0.0000000000e+00 0.0000e+00 1.0000e+00
       22  1    3    3    0    0 +5.4234388606e-01 -1.5738339019e+00 -7.3683645134e-01 1.8204444506e+00 0.0000000000e+00 0.0000e+00 1.0000e+00
       22  1    3    3    0    0 -3.2883911595e+00 +2.4545089102e+00 -2.1890141787e+00 4.6507970803e+00 0.0000000000e+00 0.0000e+00 1.0000e+00
</event>
<event>
 6      1 +5.8088000e-02 1.05794000e+01 7.81860800e-03 1.18400000e-01
      -11 -1    0    0    0    0 +0.0000000000e+00 +0.0000000000e+00 +5.2896999753e+00 5.2897000000e+00 5.1100000000e-04 0.0000e+00 -1.0000e+00
       11 -1    0    0    0    0 -0.0000000000e+00 -0.0000000000e+00 -5.2896999753e+00 5.2897000000e+00 5.1100000000e-04 0.0000e+00 1.0000e+00
  9000006  2    1    2    0    0 -3.3999298101e+00 -1.7891027144e+00 -1.4548368859e+00 6.4712420672e+00 5.0000012292e+00 3.8080e-07 0.0000e+00
       22  1    1    2    0    0 +3.3999298101e+00 +1.7891027144e+00 +1.4548368859e+00 4.1081579328e+00 0.0000000000e+00 0.0000e+00 -1.0000e+00
       22  1    3    3    0    0 +2.7456321425e-01 -3.8196582175e-01 +1.4861852888e+00 1.5588552082e+00 0.0000000000e+00 0.0000e+00 1.0000e+00
       22  1    3    3    0    0 -3.6744930243e+00 -1.4071368927e+00 -2.9410221747e+00 4.9123868590e+00 0.0000000000e+00 0.0000e+00 1.0000e+00
</event>
<event>
 6      1 +5.8088000e-02 1.05794000e+01 7.81860800e-03 1.18400000e-01
      -11 -1    0    0    0    0 +0.0000000000e+00 +0.0000000000e+00 +5.2896999753e+00 5.2897000000e+00 5.1100000000e-04 0.0000e+00 1.0000e+00
       11 -1    0    0    0    0 -0.0000000000e+00 -0.0000000000e+00 -5.2896999753e+00 5.2897000000e+00 5.1100000000e-04 0.0000e+00 -1.0000e+00
  9000006  2    1    2    0    0 -1.0746121847e+00 -3.8454664948e+00 +9.6672645066e-01 6.4712417824e+00 5.0000006266e+00 5.2646e-07 0.0000e+00
       22  1    1    2    0    0 +1.0746121847e+00 +3.8454664948e+00 -9.6672645066e-01 4.1081582176e+00 0.0000000000e+00 0.0000e+00 -1.0000e+00
       22  1    3    3    0    0 +1.3544360599e+00 -4.2852027615e-01 +1.6998066386e+00 2.2152808572e+00 0.0000000000e+00 0.0000e+00 1.0000e+00
       22  1    3    3    0    0 -2.4290482445e+00 -3.4169462187e+00 -7.3308018796e-01 4.2559609253e+00 0.0000000000e+00 0.0000e+00 1.0000e+00
</event>
<event>
 6      1 +5.8088000e-02 1.05794000e+01 7.81860800e-03 1.18400000e-01
      -11 -1    0    0    0    0 +0.0000000000e+00 +0.0000000000e+00 +5.2896999753e+00 5.2897000000e+00 5.1100000000e-04 0.0000e+00 1.0000e+00
       11 -1    0    0    0    0 -0.0000000000e+00 -0.0000000000e+00 -5.2896999753e+00 5.2897000000e+00 5.1100000000e-04 0.0000e+00 -1.0000e+00
  9000006  2    1    2    0    0 -9.5138881774e-01 -7.6591183008e-01 -3.9223981434e+00 6.4712411898e+00 4.9999993727e+00 1.9624e-08 0.0000e+00
       22  1    1    2    0    0 +9.5138881774e-01 +7.6591183008e-01 +3.9223981434e+00 4.1081588102e+00 0.0000000000e+00 0.0000e+00 1.0000e+00
       22  1    3    3    0    0 -7.0829662102e-01 +2.4980638809e-02 -5.0350369423e+00 5.0846735535e+00 0.0000000000e+00 0.0000e+00 -1.0000e+00
       22  1    3    3    0    0 -2.4309219671e-01 -7.9089246888e-01 +1.1126387988e+00 1.3865676363e+00 0.0000000000e+00 0.0000e+00 -1.0000e+00
</event>
<event>
 6      1 +5.8088000e-02 1.05794000e+01 7.81860800e-03 1.18400000e-01
      -11 -1    0    0    0    0 +0.0000000000e+00 +0.0000000000e+00 +5.2896999753e+00 5.2897000000e+00 5.1100000000e-04 0.0000e+00 -1.0000e+00
       11 -1    0    0    0    0 -0.0000000000e+00 -0.0000000000e+00 -5.2896999753e+00 5.2897000000e+00 5.1100000000e-04 0.0000e+00 1.0000e+00
  9000006  2    1    2    0    0 -2.6193884714e+00 +2.2581139719e+00 -2.2173627855e+00 6.4712407532e+00 4.9999984490e+00 2.9366e-07 0.0000e+00
       22  1    1    2    0    0 +2.6193884714e+00 -2.2581139719e+00 +2.2173627855e+00 4.1081592468e+00 0.0000000000e+00 0.0000e+00 -1.0000e+00
       22  1    3    3    0    0 -1.7438501222e+00 -4.1824158263e-01 -3.0470754859e+00 3.5356199296e+00 0.0000000000e+00 0.0000e+00 -1.0000e+00
       22  1    3    3    0    0 -8.7553834917e-01 +2.6763555545e+00 +8.2971270035e-01 2.9356208236e+00 0.0000000000e+00 0.0000e+00 -1.0000e+00
</event>
<event>
 6      1 +5.8088000e-02 1.05794000e+01 7.81860800e-03 1.18400000e-01
      -11 -1    0    0    0    0 +0.0000000000e+00 +0.0000000000e+00 +5.2896999753e+00 5.2897000000e+00 5.1100000000e-04 0.0000e+00 -1.0000e+00
       11 -1    0    0    0    0 -0.0000000000e+00 -0.0000000000e+00 -5.2896999753e+00 5.2897000000e+00 5.1100000000e-04 0.0000e+00 1.0000e+00
  9000006  2    1    2    0    0 +3.7006405543e+00 -7.6848544763e-01 -1.6098626185e+00 6.4712412828e+00 4.9999995695e+00 3.2670e-07 0.0000e+00
       22  1    1    2    0    0 -3.7006405543e+00 +7.6848544763e-01 +1.6098626185e+00 4.1081587172e+00 0.0000000000e+00 0.0000e+00 1.0000e+00
       22  1    3    3    0    0 +3.4167563293e-01 -6.3626385766e-01 +1.6422434277e+00 1.7940282636e+00 0.0000000000e+00 0.0000e+00 -1.0000e+00
       22  1    3    3    0    0 +3.3589649214e+00 -1.3222158997e-01 -3.2521060462e+00 4.6772130192e+00 0.0000000000e+00 0.0000e+00 -1.0000e+00
</event>
<event>
 6      1 +5.8088000e-02 1.05794000e+01 7.81860800e-03 1.18400000e-01
      -11 -1    0    0    0    0 +0.0000000000e+00 +0.0000000000e+00 +5.2896999753e+00 5.2897000000e+00 5.1100000000e-04 0.0000e+00 -1.0000e+00
       11 -1    0    0    0    0 -0.0000000000e+00 -0.0000000000e+00 -5.2896999753e+00 5.2897000000e+00 5.1100000000e-04 0.0000e+00 1.0000e+00
  9000006  2    1    2    0    0 +1.3666851129e+00 +3.6963294455e+00 -1.1602950955e+00 6.4712417416e+00 5.0000005402e+00 2.8136e-07 0.0000e+00
       22  1    1    2    0    0 -1.3666851129e+00 -3.6963294455e+00 +1.1602950955e+00 4.1081582584e+00 0.0000000000e+00 0.0000e+00 1.0000e+00
       22  1    3    3    0    0 +9.6713215986e-01 +4.7312630196e+00 -1.8427603504e+00 5.1687484060e+00 0.0000000000e+00 0.0000e+00 -1.0000e+00
       22  1    3    3    0    0 +3.9955295300e-01 -1.0349335741e+00 +6.8246525499e-01 1.3024933356e+00 0.0000000000e+00 0.0000e+00 -1.0000e+00
</event>
<event>
 6      1 +5.8088000e-02 1.05794000e+01 7.81860800e-03 1.18400000e-01
      -11 -1    0    0    0    0 +0.0000000000e+00 +0.0000000000e+00 +5.2896999753e+00 5.2897000000e+00 5.1100000000e-04 0.0000e+00 -1.0000e+00
       11 -1    0    0    0    0 -0.0000000000e+00 -0.0000000000e+00 -5.2896999753e+00 5.2897000000e+00 5.1100000000e-04 0.0000e+00 1.0000e+00
  9000006  2    1    2    0    0 -9.7856492115e-01 +3.0183562896e+00 +2.6093875545e+00 6.4712413607e+00 4.9999997342e+00 4.7288e-07 0.0000e+00
       22  1    1    2    0    0 +9.7856492115e-01 -3.0183562896e+00 -2.6093875545e+00 4.1081586393e+00 0.0000000000e+00 0.0000e+00 1.0000e+00
       22  1    3    3    0    0 -1.8112754028e+00 -2.1315881209e-02 -6.6208188653e-01 1.9286071077e+00 0.0000000000e+00 0.0000e+00 1.0000e+00
       22  1    3    3    0    0 +8.3271048163e-01 +3.0396721708e+00 +3.2714694411e+00 4.5426342530e+00 0.0000000000e+00 0.0000e+00 1.0000e+00
</event>
<event>
 6      1 +5.8088000e-02 1.05794000e+01 7.81860800e-03 1.18400000e-01
      -11 -1    0    0    0    0 +0.0000000000e+00 +0.0000000000e+00 +5.2896999753e+00 5.2897000000e+00 5.1100000000e-04 0.0000e+00 1.0000e+00
       11 -1    0    0    0    0 -0.0000000000e+00 -0.0000000000e+00 -5.2896999753e+00 5.2897000000e+00 5.1100000000e-04 0.0000e+00 -1.0000e+00
  9000006  2    1    2    0    0 +7.7253216292e-01 +4.0301107785e+00 -1.9586271216e-01 6.4712421365e+00 5.0000013758e+00 2.9953e-07 0.0000e+00
       22  1    1    2    0    0 -7.7253216292e-01 -4.0301107785e+00 +1.9586271216e-01 4.1081578635e+00 0.0000000000e+00 0.0000e+00 -1.0000e+00
       22  1    3    3    0    0 +2.4825491776e+00 +1.3657765531e+00 +1.1146868992e+00 3.0448190251e+00 0.0000000000e+00 0.0000e+00 1.0000e+00
       22  1    3    3    0    0 -1.7100170147e+00 +2.6643342253e+00 -1.3105496113e+00 3.4264231114e+00 0.0000000000e+00 0.0000e+00 1.0000e+00
</event>
<event>
 6      1 +5.8088000e-02 1.05794000e+01 7.81860800e-03 1.18400000e-01
      -11 -1    0    0    0    0 +0.0000000000e+00 +0.0000000000e+00 +5.2896999753e+00 5.2897000000e+00 5.1100000000e-04 0.0000e+00 1.0000e+00
       11 -1    0    0    0    0 -0.0000000000e+00 -0.0000000000e+00 -5.2896999753e+00 5.2897000000e+00 5.1100000000e-04 0.0000e+00 -1.0000e+00
  9000006  2    1    2    0    0 -1.7315328077e+00 +3.2973981416e+00 +1.7337611074e+00 6.4712412949e+00 4.9999995951e+00 1.5355e-07 0.0000e+00
       22  1    1    2    0    0 +1.7315328077e+00 -3.2973981416e+00 -1.7337611074e+00 4.1081587051e+00 0.0000000000e+00 0.0000e+00 -1.0000e+00
       22  1    3    3    0    0 +2.4137566688e-01 +9.7312611169e-01 +3.0051986340e+00 3.1680365325e+00 0.0000000000e+00 0.0000e+00 1.0000e+00
       22  1    3    3    0    0 -1.9729084746e+00 +2.3242720299e+00 -1.2714375266e+00 3.3032047624e+00 0.0000000000e+00 0.0000e+00 1.0000e+00
</event>
<event>
 6      1 +5.8088000e-02 1.05794000e+01 7.81860800e-03 1.18400000e-01
      -11 -1    0    0    0    0 +0.0000000000e+00 +0.0000000000e+00 +5.2896999753e+00 5.2897000000e+00 5.1100000000e-04 0.0000e+00 -1.0000e+00
       11 -1    0    0    0    0 -0.0000000000e+00 -0.0000000000e+00 -5.2896999753e+00 5.2897000000e+00 5.1100000000e-04 0.0000e+00 1.0000e+00
  9000006  2    1    2    0    0 +2.7481266693e+00 +1.7622721140e+00 -2.4938246369e+00 6.4712417127e+00 5.0000004790e+00 4.4591e-07 0.0000e+00
       22  1    1    2    0    0 -2.7481266693e+00 -1.7622721140e+00 +2.4938246369e+00 4.1081582873e+00 0.0000000000e+00 0.0000e+00 1.0000e+00
       22  1    3    3    0    0 -1.1340122754e+00 -3.7797665064e-01 -1.5179076241e+00 1.9320698084e+00 0.0000000000e+00 0.0000e+00 -1.0000e+00
       22  1    3    3    0    0 +3.8821389447e+00 +2.1402487646e+00 -9.7591701276e-01 4.5391719043e+00 0.0000000000e+00 0.0000e+00 -1.0000e+00
</event>
<event>
 6      1 +5.8088000e-02 1.05794000e+01 7.81860800e-03 1.18400000e-01
      -11 -1    0    0    0    0 +0.0000000000e+00 +0.0000000000e+00 +5.2896999753e+00 5.2897000000e+00 5.1100000000e-04 0.0000e+00 -1.0000e+00
       11 -1    0    0    0    0 -0.0000000000e+00 -0.0000000000e+00 -5.2896999753e+00 5.2897000000e+00 5.1100000000e-04 0.0000e+00 1.0000e+00
  9000006  2    1    2    0    0 +1.7576708679e+00 -2.7260075250e-01 +3.7031402467e+00 6.4712415638e+00 5.0000001640e+00 6.7367e-07 0.0000e+00
       22  1    1    2    0    0 -1.7576708679e+00 +2.7260075250e-01 -3.7031402467e+00 4.1081584362e+00 0.0000000000e+00 0.0000e+00 1.0000e+00
       22  1    3    3    0    0 +1.2910977484e+00 +3.5039577073e-01 +4.8801273379e+00 5.0601732605e+00 0.0000000000e+00 0.0000e+00 1.0000e+00
       22  1    3    3    0    0 +4.6657311946e-01 -6.2299652323e-01 -1.1769870912e+00 1.4110683033e+00 0.0000000000e+00 0.0000e+00 1.0000e+00
</event>
<event>
 6      1 +5.8088000e-02 1.05794000e+01 7.81860800e-03 1.18400000e-01
      -11 -1    0    0    0    0 +0.0000000000e+00 +0.0000000000e+00 +5.2896999753e+00 5.2897000000e+00 5.1100000000e-04 0.0000e+00 1.0000e+00
       11 -1    0    0    0    0 -0.0000000000e+00 -0.0000000000e+00 -5.2896999753e+00 5.2897000000e+00 5.1100000000e-04 0.0000e+00 -1.0000e+00
  9000006  2    1    2    0    0 +1.4984599287e+00 +3.2874499874e+00 +1.9555708113e+00 6.4712414374e+00 4.9999998966e+00 2.6135e-07 0.0000e+00
       22  1    1    2    0    0 -1.4984599287e+00 -3.2874499874e+00 -1.9555708113e+00 4.1081585626e+00 0.0000000000e+00 0.0000e+00 -1.0000e+00
       22  1    3    3    0    0 -1.4727241973e+00 +7.9795228128e-01 +1.9818493077e+00 2.5948740014e+00 0.0000000000e+00 0.0000e+00 1.0000e+00
       22  1    3    3    0    0 +2.9711841260e+00 +2.4894977061e+00 -2.6278496472e-02 3.8763674360e+00 0.0000000000e+00 0.0000e+00 1.0000e+00
</event>
<event>
 6      1 +5.8088000e-02 1.05794000e+01 7.81860800e-03 1.18400000e-01
      -11 -1    0    0    0    0 +0.0000000000e+00 +0.0000000000e+00 +5.2896999753e+00 5.2897000000e+00 5.1100000000e-04 0.0000e+00 1.0000e+00
       11 -1    0    0    0    0 -0.0000000000e+00 -0.0000000000e+00 -5.2896999753e+00 5.2897000000e+00 5.1100000000e-04 0.0000e+00 -1.0000e+00
  9000006  2    1    2    0    0 +1.0234394451e+00 +1.0200785753e+00 -3.8456437552e+00 6.4712417156e+00 5.0000004851e+00 4.6154e-07 0.0000e+00
       22  1    1    2    0    0 -1.0234394451e+00 -1.0200785753e+00 +3.8456437552e+00 4.1081582844e+00 0.0000000000e+00 0.0000e+00 1.0000e+00
       22  1    3    3    0    0 +8.0334487955e-01 -1.5979355442e+00 +3.0326752043e-02 1.7887651357e+00 0.0000000000e+00 0.0000e+00 1.0000e+00
       22  1    3    3    0    0 +2.2009456558e-01 +2.6180141195e+00 -3.8759705073e+00 4.6824765799e+00 0.0000000000e+00 0.0000e+00 1.0000e+00
</event>
<event>
 6      1 +5.8088000e-02 1.05794000e+01 7.81860800e-03 1.18400000e-01
      -11 -1    0    0    0    0 +0.0000000000e+00 +0.0000000000e+00 +5.2896999753e+00 5.2897000000e+00 5.1100000000e-04 0.0000e+00 -1.0000e+00
       11 -1    0    0    0    0 -0.0000000000e+00 -0.0000000000e+00 -5.2896999753e+00 5.2897000000e+00 5.1100000000e-04 0.0000e+00 1.0000e+00
  9000006  2    1    2    0    0 -2.7902314266e+00 +2.1030802812e+00 +2.1607011438e+00 6.4712413473e+00 4.9999997059e+00 9.2813e-07 0.0000e+00
       22  1    1    2    0    0 +2.7902314266e+00 -2.1030802812e+00 -2.1607011438e+00 4.1081586527e+00 0.0000000000e+00 0.0000e+00 1.0000e+00
       22  1    3    3    0    0 +8.1753514800e-02 +3.0064686841e+00 +5.5243248820e-01 3.0578945763e+00 0.0000000000e+00 0.0000e+00 -1.0000e+00
       22  1    3    3    0    0 -2.8719849414e+00 -9.0338840297e-01 +1.6082686556e+00 3.4133467710e+00 0.0000000000e+00 0.0000e+00 -1.0000e+00
</event>
<event>
 6      1 +5.8088000e-02 1.05794000e+01 7.81860800e-03 1.18400000e-01
      -11 -1    0    0    0    0 +0.0000000000e+00 +0.0000000000e+00 +5.2896999753e+00 5.2897000000e+00 5.1100000000e-04 0.0000e+00 -1.0000e+00
       11 -1    0    0    0    0 -0.0000000000e+00 -0.0000000000e+00 -5.2896999753e+00 5.2897000000e+00 5.1100000000e-04 0.0000e+00 1.0000e+00
  9000006  2    1    2    0    0 -3.3881612264e+00 -2.3170302498e+00 -1.6941334088e-01 6.4712414643e+00 4.9999999534e+00 3.6669e-07 0.0000e+00
       22  1    1    2    0    0 +3.3881612264e+00 +2.3170302498e+00 +1.6941334088e-01 4.1081585357e+00 0.0000000000e+00 0.0000e+00 1.0000e+00
       22  1    3    3    0    0 -1.6053821955e-01 -2.9539120932e+00 -9.1772276246e-01 3.0973511656e+00 0.0000000000e+00 0.0000e+00 -1.0000e+00
       22  1    3    3    0    0 -3.2276230069e+00 +6.3688184340e-01 +7.4830942158e-01 3.3738902987e+00 0.0000000000e+00 0.0000e+00 -1.0000e+00
</event>
<event>
 6      1 +5.8088000e-02 1.05794000e+01 7.81860800e-03 1.18400000e-01
      -11 -1    0    0    0    0 +0.0000000000e+00 +0.0000000000e+00 +5.2896999753e+00 5.2897000000e+00 5.1100000000e-04 0.0000e+00 -1.0000e+00
       11 -1    0    0    0    0 -0.0000000000e+00 -0.0000000000e+00 -5.2896999753e+00 5.2897000000e+00 5.1100000000e-04 0.0000e+00 1.0000e+00
  9000006  2    1    2    0    0 +3.0966242317e-01 -1.3258395357e+00 +3.8759803286e+00 6.4712416780e+00 5.0000004056e+00 5.7930e-08 0.0000e+00
       22  1    1    2    0    0 -3.0966242317e-01 +1.3258395357e+00 -3.8759803286e+00 4.1081583220e+00 0.0000000000e+00 0.0000e+00 1.0000e+00
       22  1    3    3    0    0 -1.4851242013e+00 +9.5223653253e-01 +2.9310642208e+00 3.4210357750e+00 0.0000000000e+00 0.0000e+00 -1.0000e+00
       22  1    3    3    0    0 +1.7947866244e+00 -2.2780760683e+00 +9.4491610780e-01 3.0502059030e+00 0.0000000000e+00 0.0000e+00 -1.0000e+00
</event>
<event>
 6      1 +5.8088000e-02 1.05794000e+01 7.81860800e-03 1.18400000e-01
      -11 -1    0    0    0    0 +0.0000000000e+00 +0.0000000000e+00 +5.2896999753e+00 5.2897000000e+00 5.1100000000e-04 0.0000e+00 -1.0000e+00
       11 -1    0    0    0    0 -0.0000000000e+00 -0.0000000000e+00 -5.2896999753e+00 5.2897000000e+00 5.1100000000e-04 0.0000e+00 1.0000e+00
  9000006  2    1    2    0    0 -2.4106542685e+00 +1.8604313045e+00 -2.7576272734e+00 6.4712414320e+00 4.9999998852e+00 1.2542e-07 0.0000e+00
       22  1    1    2    0    0 +2.4106542685e+00 -1.8604313045e+00 +2.7576272734e+00 4.1081585680e+00 0.0000000000e+00 0.0000e+00 -1.0000e+00
       22  1    3    3    0    0 +9.8930074796e-01 +1.9808879235e+00 -2.1622469922e-01 2.2247215681e+00 0.0000000000e+00 0.0000e+00 1.0000e+00
       22  1    3    3    0    0 -3.3999550164e+00 -1.2045661897e-01 -2.5414025741e+00 4.2465198639e+00 0.0000000000e+00 0.0000e+00 1.0000e+00
</event>
<event>
 6      1 +5.8088000e-02 1.05794000e+01 7.81860800e-03 1.18400000e-01
      -11 -1    0    0    0    0 +0.0000000000e+00 +0.0000000000e+00 +5.2896999753e+00 5.2897000000e+00 5.1100000000e-04 0.0000e+00 -1.0000e+00
       11 -1    0    0    0    0 -0.0000000000e+00 -0.0000000000e+00 -5.2896999753e+00 5.2897000000e+00 5.1100000000e-04 0.0000e+00 1.0000e+00
  9000006  2    1    2    0    0 -1.7907602934e+00 -5.5047014566e-01 +3.6561078874e+00 6.4712416907e+00 5.0000004326e+00 1.6085e-07 0.0000e+00
       22  1    1    2    0    0 +1.7907602934e+00 +5.5047014566e-01 -3.6561078874e+00 4.1081583093e+00 0.0000000000e+00 0.0000e+00 1.0000e+00
       22  1    3    3    0    0 -3.5259240210e+00 -7.5472956269e-02 +2.6374262226e+00 4.4038453025e+00 0.0000000000e+00 0.0000e+00 -1.0000e+00
       22  1    3    3    0    0 +1.7351637277e+00 -4.7499718939e-01 +1.0186816648e+00 2.0673963882e+00 0.0000000000e+00 0.0000e+00 -1.0000e+00
</event>
<event>
 6      1 +5.8088000e-02 1.05794000e+01 7.81860800e-03 1.18400000e-01
      -11 -1    0    0    0    0 +0.0000000000e+00 +0.0000000000e+00 +5.2896999753e+00 5.2897000000e+00 5.1100000000e-04 0.0000e+00 1.0000e+00
       11 -1    0    0    0    0 -0.0000000000e+00 -0.0000000000e+00 -5.2896999753e+00 5.2897000000e+00 5.1100000000e-04 0.0000e+00 -1.0000e+00
  9000006  2    1    2    0    0 -5.7832823871e-01 -3.4733935305e+00 -2.1161378871e+00 6.4712415651e+00 5.0000001667e+00 1.1127e-08 0.0000e+00
       22  1    1    2    0    0 +5.7832823871e-01 +3.4733935305e+00 +2.1161378871e+00 4.1081584349e+00 0.0000000000e+00 0.0000e+00 1.0000e+00
       22  1    3    3    0    0 -4.1585390950e-01 +5.7974991302e-01 +1.0886498132e+00 1.3016154775e+00 0.0000000000e+00 0.0000e+00 -1.0000e+00
       22  1    3    3    0    0 -1.6247432921e-01 -4.0531434435e+00 -3.2047877003e+00 5.1696260875e+00 0.0000000000e+00 0.0000e+00 -1.0000e+00
</event>
<event>
 6      1 +5.8088000e-02 1.05794000e+01 7.81860800e-03 1.18400000e-01
      -11 -1    0    0    0    0 +0.0000000000e+00 +0.0000000000e+00 +5.2896999753e+00 5.2897000000e+00 5.1100000000e-04 0.0000e+00 -1.0000e+00
       11 -1    0    0    0    0 -0.0000000000e+00 -0.0000000000e+00 -5.2896999753e+00 5.2897000000e+00 5.1100000000e-04 0.0000e+00 1.0000e+00
  9000006  2    1    2    0    0 +2.5748053215e+00 -1.2467663316e+00 -2.9483748066e+00 6.4712419298e+00 5.0000009385e+00 2.0446e-07 0.0000e+00
       22  1    1    2    0    0 -2.5748053215e+00 +1.2467663316e+00 +2.9483748066e+00 4.1081580702e+00 0.0000000000e+00 0.0000e+00 -1.0000e+00
       22  1    3    3    0    0 +2.9888163425e+00 +6.2691652698e-01 -3.3262328402e+00 4.5155146294e+00 0.0000000000e+00 0.0000e+00 -1.0000e+00
       22  1    3    3    0    0 -4.1401102104e-01 -1.8736828586e+00 +3.7785803357e-01 1.9557273004e+00 0.0000000000e+00 0.0000e+00 -1.0000e+00
</event>
<event>
 6      1 +5.8088000e-02 1.05794000e+01 7.81860800e-03 1.18400000e-01
      -11 -1    0    0    0    0 +0.0000000000e+00 +0.0000000000e+00 +5.2896999753e+00 5.2897000000e+00 5.1100000000e-04 0.0000e+00 -1.0000e+00
       11 -1    0    0    0    0 -0.0000000000e+00 -0.0000000000e+00 -5.2896999753e+00 5.2897000000e+00 5.1100000000e-04 0.0000e+00 1.0000e+00
  9000006  2    1    2    0    0 -2.1278415135e+00 -3.4247231978e+00 +7.8773373013e-01 6.4712419069e+00 5.0000008900e+00 2.9557e-07 0.0000e+00
       22  1    1    2    0    0 +2.1278415135e+00 +3.4247231978e+00 -7.8773373013e-01 4.1081580931e+00 0.0000000000e+00 0.0000e+00 1.0000e+00
       22  1    3    3    0    0 -3.0521033435e+00 -3.9221219261e+00 +1.5135627145e+00 5.1951176419e+00 0.0000000000e+00 0.0000e+00 -1.0000e+00
       22  1    3    3    0    0 +9.2426182997e-01 +4.9739872829e-01 -7.2582898438e-01 1.2761242650e+00 0.0000000000e+00 0.0000e+00 -1.0000e+00
</event>
<event>
 6      1 +5.8088000e-02 1.05794000e+01 7.81860800e-03 1.18400000e-01
      -11 -1    0    0    0    0 +0.0000000000e+00 +0.0000000000e+00 +5.2896999753e+00 5.2897000000e+00 5.1100000000e-04 0.0000e+00 -1.0000e+00
       11 -1    0    0    0    0 -0.0000000000e+00 -0.0000000000e+00 -5.2896999753e+00 5.2897000000e+00 5.1100000000e-04 0.0000e+00 1.0000e+00
  9000006  2    1    2    0    0 -3.3768151897e+00 -1.2096406490e+00 -2.0027122036e+00 6.4712413497e+00 4.9999997110e+00 6.6554e-07 0.0000e+00
       22  1    1    2    0    0 +3.3768151897e+00 +1.2096406490e+00 +2.0027122036e+00 4.1081586503e+00 0.0000000000e+00 0.0000e+00 -1.0000e+00
       22  1    3    3    0    0 -3.9891647354e+00 +7.2482903988e-01 -8.6769694271e-01 4.1462887511e+00 0.0000000000e+00 0.0000e+00 1.0000e+00
       22  1    3    3    0    0 +6.1234954564e-01 -1.9344696889e+00 -1.1350152609e+00 2.3249525986e+00 0.0000000000e+00 0.0000e+00 1.0000e+00
</event>
<event>
 6      1 +5.8088000e-02 1.05794000e+01 7.81860800e-03 1.18400000e-01
      -11 -1    0    0    0    0 +0.0000000000e+00 +0.0000000000e+00 +5.2896999753e+00 5.2897000000e+00 5.1100000000e-04 0.0000e+00 1.0000e+00
       11 -1    0    0    0    0 -0.0000000000e+00 -0.0000000000e+00 -5.2896999753e+00 5.2897000000e+00 5.1100000000e-04 0.0000e+00 -1.0000e+00
  9000006  2    1    2    0    0 +1.5868103761e+00 +2.4681588881e+00 +2.8752720513e+00 6.4712416735e+00 5.0000003961e+00 9.6044e-08 0.0000e+00
       22  1    1    2    0    0 -1.5868103761e+00 -2.4681588881e+00 -2.8752720513e+00 4.1081583265e+00 0.0000000000e+00 0.0000e+00 -1.0000e+00
       22  1    3    3    0    0 +3.1216498566e-01 -1.4309892849e+00 +1.6140663765e+00 2.1795383868e+00 0.0000000000e+00 0.0000e+00 1.0000e+00
       22  1    3    3    0    0 +1.2746453905e+00 +3.8991481730e+00 +1.2612056748e+00 4.2917032867e+00 0.0000000000e+00 0.0000e+00 1.0000e+00
</event>
<event>
 6      1 +5.8088000e-02 1.05794000e+01 7.81860800e-03 1.18400000e-01
      -11 -1    0    0    0    0 +0.0000000000e+00 +0.0000000000e+00 +5.2896999753e+00 5.2897000000e+00 5.1100000000e-04 0.0000e+00 -1.0000e+00
       11 -1    0    0    0    0 -0.0000000000e+00 -0.0000000000e+00 -5.2896999753e+00 5.2897000000e+00 5.1100000000e-04 0.0000e+00 1.0000e+00
  9000006  2    1    2    0    0 -2.1824493113e+00 +3.4613287785e+00 +3.6480807426e-01 6.4712414295e+00 4.9999998799e+00 1.1649e-06 0.0000e+00
       22  1    1    2    0    0 +2.1824493113e+00 -3.4613287785e+00 -3.6480807426e-01 4.1081585705e+00 0.0000000000e+00 0.0000e+00 1.0000e+00
       22  1    3    3    0    0 -3.5376514078e+00 +2.1585825531e+00 +1.3374758914e+00 4.3546868868e+00 0.0000000000e+00 0.0000e+00 1.0000e+00
       22  1    3    3    0    0 +1.3552020965e+00 +1.3027462254e+00 -9.7266781709e-01 2.1165545428e+00 0.0000000000e+00 0.0000e+00 1.0000e+00
</event>
<event>
 6      1 +5.8088000e-02 1.05794000e+01 7.81860800e-03 1.18400000e-01
      -11 -1    0    0    0    0 +0.0000000000e+00 +0.0000000000e+00 +5.2896999753e+00 5.2897000000e+00 5.1100000000e-04 0.0000e+00 1.0000e+00
       11 -1    0    0    0    0 -0.0000000000e+00 -0.0000000000e+00 -5.2896999753e+00 5.2897000000e+00 5.1100000000e-04 0.0000e+00 -1.0000e+00
  9000006  2    1    2    0    0 -3.1744774338e+00 +2.5081608798e+00 +7.1329441341e-01 6.4712414226e+00 4.9999998653e+00 3.3856e-08 0.0000e+00
       22  1    1    2    0    0 +3.1744774338e+00 -2.5081608798e+00 -7.1329441341e-01 4.1081585774e+00 0.0000000000e+00 0.0000e+00 1.0000e+00
       22  1    3    3    0    0 +3.4500638003e-01 -1.0436917500e+00 -6.6471918687e-01 1.2845907787e+00 0.0000000000e+00 0.0000e+00 -1.0000e+00
       22  1    3    3    0    0 -3.5194838138e+00 +3.5518526298e+00 +1.3780136003e+00 5.1866506439e+00 0.0000000000e+00 0.0000e+00 -1.0000e+00
</event>
<event>
 6      1 +5.8088000e-02 1.05794000e+01 7.81860800e-03 1.18400000e-01
      -11 -1    0    0    0    0 +0.0000000000e+00 +0.0000000000e+00 +5.2896999753e+00 5.2897000000e+00 5.1100000000e-04 0.0000e+00 -1.0000e+00
       11 -1    0    0    0    0 -0.0000000000e+00 -0.0000000000e+00 -5.2896999753e+00 5.2897000000e+00 5.1100000000e-04 0.0000e+00 1.0000e+00
  9000006  2    1    2    0    0 -2.6122669340e-01 +2.5540227481e+00 -3.2071318123e+00 6.4712415263e+00 5.0000000848e+00 1.8850e-07 0.0000e+00
       22  1    1    2    0    0 +2.6122669340e-01 -2.5540227481e+00 +3.2071318123e+00 4.1081584737e+00 0.0000000000e+00 0.0000e+00 -1.0000e+00
       22  1    3    3    0    0 -9.6190689037e-01 -1.4948095750e-01 -3.5281920678e+00 3.6600203127e+00 0.0000000000e+00 0.0000e+00 1.0000e+00
       22  1    3    3    0    0 +7.0068019697e-01 +2.7035037056e+00 +3.2106025543e-01 2.8112212136e+00 0.0000000000e+00 0.0000e+00 1.0000e+00
</event>
<event>
 6      1 +5.8088000e-02 1.05794000e+01 7.81860800e-03 1.18400000e-01
      -11 -1    0    0    0    0 +0.0000000000e+00 +0.0000000000e+00 +5.2896999753e+00 5.2897000000e+00 5.1100000000e-04 0.0000e+00 1.0000e+00
       11 -1    0    0    0    0 -0.0000000000e+00 -0.0000000000e+00 -5.2896999753e+00 5.2897000000e+00 5.1100000000e-04 0.0000e+00 -1.0000e+00
  9000006  2    1    2    0    0 -9.3460788606e-01 -3.9810846860e+00 +3.9298918824e-01 6.4712413273e+00 4.9999996636e+00 4.2443e-07 0.0000e+00
       22  1    1    2    0    0 +9.3460788606e-01 +3.9810846860e+00 -3.9298918824e-01 4.1081586727e+00 0.0000000000e+00 0.0000e+00 -1.0000e+00
       22  1    3    3    0    0 +1.1079591317e+00 -2.1096944168e+00 +2.1344526915e+00 3.1991049158e+00 0.0000000000e+00 0.0000e+00 1.0000e+00
       22  1    3    3    0    0 -2.0425670178e+00 -1.8713902692e+00 -1.7414635033e+00 3.2721364115e+00 0.0000000000e+00 0.0000e+00 1.0000e+00
</event>
<event>
 6      1 +5.8088000e-02 1.05794000e+01 7.81860800e-03 1.18400000e-01
      -11 -1    0    0    0    0 +0.0000000000e+00 +0.0000000000e+00 +5.2896999753e+00 5.2897000000e+00 5.1100000000e-04 0.0000e+00 -1.0000e+00
       11 -1    0    0    0    0 -0.0000000000e+00 -0.0000000000e+00 -5.2896999753e+00 5.2897000000e+00 5.1100000000e-04 0.0000e+00 1.0000e+00
  9000006  2    1    2    0    0 +2.3071972235e+00 +2.6895255055e+00 +2.0785248657e+00 6.4712407905e+00 4.9999985278e+00 1.2931e-07 0.0000e+00
       22  1    1    2    0    0 -2.3071972235e+00 -2.6895255055e+00 -2.0785248657e+00 4.1081592095e+00 0.0000000000e+00 0.0000e+00 1.0000e+00
       22  1    3    3    0    0 +4.9572478830e-01 +3.8954840014e+00 +1.6162292525e+00 4.2464968701e+00 0.0000000000e+00 0.0000e+00 1.0000e+00
       22  1    3    3    0    0 +1.8114724352e+00 -1.2059584959e+00 +4.6229561319e-01 2.2247439204e+00 0.0000000000e+00 0.0000e+00 1.0000e+00
</event>
<event>
 6      1 +5.8088000e-02 1.05794000e+01 7.81860800e-03 1.18400000e-01
      -11 -1    0    0    0    0 +0.0000000000e+00 +0.0000000000e+00 +5.2896999753e+00 5.2897000000e+00 5.1100000000e-04 0.0000e+00 1.0000e+00
       11 -1    0    0    0    0 -0.0000000000e+00 -0.0000000000e+00 -5.2896999753e+00 5.2897000000e+00 5.1100000000e-04 0.0000e+00 -1.0000e+00
  9000006  2    1    2    0    0 -1.6309465119e+00 +2.5972425667e+00 +2.7333693726e+00 6.4712418236e+00 5.0000007138e+00 9.4551e-08 0.0000e+00
       22  1    1    2    0    0 +1.6309465119e+00 -2.5972425667e+00 -2.7333693726e+00 4.1081581764e+00 0.0000000000e+00 0.0000e+00 -1.0000e+00
       22  1    3    3    0    0 +1.3802503415e+00 -2.9969331459e-01 +1.6154268368e+00 2.1458124226e+00 0.0000000000e+00 0.0000e+00 1.0000e+00
       22  1    3    3    0    0 -3.0111968534e+00 +2.8969358813e+00 +1.1179425358e+00 4.3254294010e+00 0.0000000000e+00 0.0000e+00 1.0000e+00
</event>
<event>
 6      1 +5.8088000e-02 1.05794000e+01 7.81860800e-03 1.18400000e-01
      -11 -1    0    0    0    0 +0.0000000000e+00 +0.0000000000e+00 +5.2896999753e+00 5.2897000000e+00 5.1100000000e-04 0.0000e+00 -1.0000e+00
       11 -1    0    0    0    0 -0.0000000000e+00 -0.0000000000e+00 -5.2896999753e+00 5.2897000000e+00 5.1100000000e-04 0.0000e+00 1.0000e+00
  9000006  2    1    2    0    0 -2.6364342966e+00 -9.3624332437e-02 -3.1491924855e+00 6.4712416989e+00 5.0000004499e+00 2.4531e-07 0.0000e+00
       22  1    1    2    0    0 +2.6364342966e+00 +9.3624332437e-02 +3.1491924855e+00 4.1081583011e+00 0.0000000000e+00 0.0000e+00 -1.0000e+00
       22  1    3    3    0    0 -1.2454600027e+00 +2.1951255167e+00 -2.8011597218e+00 3.7704432683e+00 0.0000000000e+00 0.0000e+00 1.0000e+00
       22  1    3    3    0    0 -1.3909742939e+00 -2.2887498491e+00 -3.4803276372e-01 2.7007984306e+00 0.0000000000e+00 0.0000e+00 1.0000e+00
</event>
<event>
 6      1 +5.8088000e-02 1.05794000e+01 7.81860800e-03 1.18400000e-01
      -11 -1    0    0    0    0 +0.0000000000e+00 +0.0000000000e+00 +5.2896999753e+00 5.2897000000e+00 5.1100000000e-04 0.0000e+00 1.0000e+00
       11 -1    0    0    0    0 -0.0000000000e+00 -0.0000000000e+00 -5.2896999753e+00 5.2897000000e+00 5.1100000000e-04 0.0000e+00 -1.0000e+00
  9000006  2    1    2    0    0 +2.7102305236e+00 +4.9789664084e-01 +3.0469190787e+00 6.4712414797e+00 4.9999999860e+00 1.0166e-06 0.0000e+00
       22  1    1    2    0    0 -2.7102305236e+00 -4.9789664084e-01 -3.0469190787e+00 4.1081585203e+00 0.0000000000e+00 0.0000e+00 -1.0000e+00
       22  1    3    3    0    0 +2.8800299159e+00 -9.5222908507e-01 -6.4758253898e-02 3.0340577085e+00 0.0000000000e+00 0.0000e+00 1.0000e+00
       22  1    3    3    0    0 -1.6979939233e-01 +1.4501257259e+00 +3.1116773326e+00 3.4371837712e+00 0.0000000000e+00 0.0000e+00 1.0000e+00
</event>
<event>
 6      1 +5.8088000e-02 1.05794000e+01 7.81860800e-03 1.18400000e-01
      -11 -1    0    0    0    0 +0.0000000000e+00 +0.0000000000e+00 +5.2896999753e+00 5.2897000000e+00 5.1100000000e-04 0.0000e+00 -1.0000e+00
       11 -1    0    0    0    0 -0.0000000000e+00 -0.0000000000e+00 -5.2896999753e+00 5.2897000000e+00 5.1100000000e-04 0.0000e+00 1.0000e+00
  9000006  2    1    2    0    0 +2.8766994197e+00 -8.7151742629e-01 +2.8003614288e+00 6.4712414943e+00 5.0000000170e+00 2.4935e-08 0.0000e+00
       22  1    1    2    0    0 -2.8766994197e+00 +8.7151742629e-01 -2.8003614288e+00 4.1081585057e+00 0.0000000000e+00 0.0000e+00 1.0000e+00
       22  1    3    3    0    0 +4.2595300316e+00 -9.7741500908e-01 +1.6569831801e+00 4.6738131594e+00 0.0000000000e+00 0.0000e+00 1.0000e+00
       22  1    3    3    0    0 -1.3828306119e+00 +1.0589758279e-01 +1.1433782487e+00 1.7974283349e+00 0.0000000000e+00 0.0000e+00 1.0000e+00
</event>
<event>
 6      1 +5.8088000e-02 1.05794000e+01 7.81860800e-03 1.18400000e-01
      -11 -1    0    0    0    0 +0.0000000000e+00 +0.0000000000e+00 +5.2896999753e+00 5.2897000000e+00 5.1100000000e-04 0.0000e+00 1.0000e+00
       11 -1    0    0    0    0 -0.0000000000e+00 -0.0000000000e+00 -5.2896999753e+00 5.2897000000e+00 5.1100000000e-04 0.0000e+00 -1.0000e+00
  9000006  2    1    2    0    0 -2.9278781096e+00 +1.1958811752e+00 -2.6219012800e+00 6.4712412480e+00 4.9999994957e+00 1.4750e-07 0.0000e+00
       22  1    1    2    0    0 +2.9278781096e+00 -1.1958811752e+00 +2.6219012800e+00 4.1081587520e+00 0.0000000000e+00 0.0000e+00 1.0000e+00
       22  1    3    3    0    0 -5.1608203700e-01 +2.8764813346e+00 -8.6980992960e-01 3.0491072220e+00 0.0000000000e+00 0.0000e+00 -1.0000e+00
       22  1    3    3    0    0 -2.4117960726e+00 -1.6806001594e+00 -1.7520913504e+00 3.4221340260e+00 0.0000000000e+00 0.0000e+00 -1.0000e+00
</event>
<event>
 6      1 +5.8088000e-02 1.05794000e+01 7.81860800e-03 1.18400000e-01
      -11 -1    0    0    0    0 +0.0000000000e+00 +0.0000000000e+00 +5.2896999753e+00 5.2897000000e+00 5.1100000000e-04 0.0000e+00 1.0000e+00
       11 -1    0    0    0    0 -0.0000000000e+00 -0.0000000000e+00 -5.2896999753e+00 5.2897000000e+00 5.1100000000e-04 0.0000e+00 -1.0000e+00
  9000006  2    1    2    0    0 -2.6670974498e+00 -2.7800689697e+00 +1.4264548774e+00 6.4712415561e+00 5.0000001477e+00 2.0751e-08 0.0000e+00
       22  1    1    2    0    0 +2.6670974498e+00 +2.7800689697e+00 -1.4264548774e+00 4.1081584439e+00 0.0000000000e+00 0.0000e+00 -1.0000e+00
       22  1    3    3    0    0 -2.7163485652e+00 +6.9531842222e-01 +9.6327437588e-01 2.9647790405e+00 0.0000000000e+00 0.0000e+00 -1.0000e+00
       22  1    3    3    0    0 +4.9251115381e-02 -3.4753873919e+00 +4.6318050157e-01 3.5064625156e+00 0.0000000000e+00 0.0000e+00 -1.0000e+00
</event>
<event>
 6      1 +5.8088000e-02 1.05794000e+01 7.81860800e-03 1.18400000e-01
      -11 -1    0    0    0    0 +0.0000000000e+00 +0.0000000000e+00 +5.2896999753e+00 5.2897000000e+00 5.1100000000e-04 0.0000e+00 -1.0000e+00
       11 -1    0    0    0    0 -0.0000000000e+00 -0.0000000000e+00 -5.2896999753e+00 5.2897000000e+00 5.1100000000e-04 0.0000e+00 1.0000e+00
  9000006  2    1    2    0    0 -3.3700951678e-01 -4.0760145290e+00 -3.8664683193e-01 6.4712415771e+00 5.0000001922e+00 3.6367e-07 0.0000e+00
       22  1    1    2    0    0 +3.3700951678e-01 +4.0760145290e+00 +3.8664683193e-01 4.1081584229e+00 0.0000000000e+00 0.0000e+00 -1.0000e+00
       22  1    3    3    0    0 +2.2495196004e+00 -1.7001230397e+00 +4.6385765982e-01 2.8576075152e+00 0.0000000000e+00 0.0000e+00 -1.0000e+00
       22  1    3    3    0    0 -2.5865291171e+00 -2.3758914893e+00 -8.5050449175e-01 3.6136340619e+00 0.0000000000e+00 0.0000e+00 -1.0000e+00
</event>
<event>
 6      1 +5.8088000e-02 1.05794000e+01 7.81860800e-03 1.18400000e-01
      -11 -1    0    0    0    0 +0.0000000000e+00 +0.0000000000e+00 +5.2896999753e+00 5.2897000000e+00 5.1100000000e-04 0.0000e+00 1.0000e+00
       11 -1    0    0    0    0 -0.0000000000e+00 -0.0000000000e+00 -5.2896999753e+00 5.2897000000e+00 5.1100000000e-04 0.0000e+00 -1.0000e+00
  9000006  2    1    2    0    0 -3.2751659084e+00 -1.9091170047e-01 -2.4726134316e+00 6.4712402919e+00 4.9999974728e+00 1.2378e-06 0.0000e+00
       22  1    1    2    0    0 +3.2751659084e+00 +1.9091170047e-01 +2.4726134316e+00 4.1081597081e+00 0.0000000000e+00 0.0000e+00 1.0000e+00
       22  1    3    3    0    0 +4.8370068843e-01 -6.1099008864e-01 -2.5722078054e+00 2.6876622255e+00 0.0000000000e+00 0.0000e+00 -1.0000e+00
       22  1    3    3    0    0 -3.7588665968e+00 +4.2007838817e-01 +9.9594373762e-02 3.7835780664e+00 0.0000000000e+00 0.0000e+00 -1.0000e+00
</event>
<event>
 6      1 +5.8088000e-02 1.05794000e+01 7.81860800e-03 1.18400000e-01
      -11 -1    0    0    0    0 +0.0000000000e+00 +0.0000000000e+00 +5.2896999753e+00 5.2897000000e+00 5.1100000000e-04 0.0000e+00 -1.0000e+00
       11 -1    0    0    0    0 -0.0000000000e+00 -0.0000000000e+00 -5.2896999753e+00 5.2897000000e+00 5.1100000000e-04 0.0000e+00 1.0000e+00
  9000006  2    1    2    0    0 +1.9734896468e+00 +2.4176573621e+00 +2.6715604427e+00 6.4712418110e+00 5.0000006871e+00 4.0165e-08 0.0000e+00
       22  1    1    2    0    0 -1.9734896468e+00 -2.4176573621e+00 -2.6715604427e+00 4.1081581890e+00 0.0000000000e+00 0.0000e+00 1.0000e+00
       22  1    3    3    0    0 +4.0272729407e-01 +1.0792582759e+00 -1.4559778241e+00 1.8565718741e+00 0.0000000000e+00 0.0000e+00 -1.0000e+00
       22  1    3    3    0    0 +1.5707623527e+00 +1.3383990863e+00 +4.1275382668e+00 4.6146699369e+00 0.0000000000e+00 0.0000e+00 -1.0000e+00
</event>
<event>
 6      1 +5.8088000e-02 1.05794000e+01 7.81860800e-03 1.18400000e-01
      -11 -1    0    0    0    0 +0.0000000000e+00 +0.0000000000e+00 +5.2896999753e+00 5.2897000000e+00 5.1100000000e-04 0.0000e+00 -1.0000e+00
       11 -1    0    0    0    0 -0.0000000000e+00 -0.0000000000e+00 -5.2896999753e+00 5.2897000000e+00 5.1100000000e-04 0.0000e+00 1.0000e+00
  9000006  2    1    2    0    0 +3.3831457214e+00 +2.2597799307e+00 +5.6981314271e-01 6.4712413705e+00 4.9999997550e+00 3.3523e-07 0.0000e+00
       22  1    1    2    0    0 -3.3831457214e+00 -2.2597799307e+00 -5.6981314271e-01 4.1081586295e+00 0.0000000000e+00 0.0000e+00 -1.0000e+00
       22  1    3    3    0    0 +4.4304971472e+00 +6.6904646591e-01 +8.0413342378e-01 4.5523135555e+00 0.0000000000e+00 0.0000e+00 1.0000e+00
       22  1    3    3    0    0 -1.0473514257e+00 +1.5907334648e+00 -2.3432028107e-01 1.9189278150e+00 0.0000000000e+00 0.0000e+00 1.0000e+00
</event>
<event>
 6      1 +5.8088000e-02 1.05794000e+01 7.81860800e-03 1.18400000e-01
      -11 -1    0    0    0    0 +0.0000000000e+00 +0.0000000000e+00 +5.2896999753e+00 5.2897000000e+00 5.1100000000e-04 0.0000e+00 1.0000e+00
       11 -1    0    0    0    0 -0.0000000000e+00 -0.0000000000e+00 -5.2896999753e+00 5.2897000000e+00 5.1100000000e-04 0.0000e+00 -1.0000e+00
  9000006  2    1    2    0    0 +3.1492461289e-01 -2.9059006160e+00 -2.8867853334e+00 6.4712415972e+00 5.0000002346e+00 1.6698e-07 0.0000e+00
       22  1    1    2    0    0 -3.1492461289e-01 +2.9059006160e+00 +2.8867853334e+00 4.1081584028e+00 0.0000000000e+00 0.0000e+00 1.0000e+00
       22  1    3    3    0    0 -1.4371547326e+00 -3.3156277069e+00 -7.7323225581e-01 3.6954957634e+00 0.0000000000e+00 0.0000e+00 -1.0000e+00
       22  1    3    3    0    0 +1.7520793455e+00 +4.0972709091e-01 -2.1135530776e+00 2.7757458338e+00 0.0000000000e+00 0.0000e+00 -1.0000e+00
</event>
<event>
 6      1 +5.8088000e-02 1.05794000e+01 7.81860800e-03 1.18400000e-01
      -11 -1    0    0    0    0 +0.0000000000e+00 +0.0000000000e+00 +5.2896999753e+00 5.2897000000e+00 5.1100000000e-04 0.0000e+00 -1.0000e+00
       11 -1    0    0    0    0 -0.0000000000e+00 -0.0000000000e+00 -5.2896999753e+00 5.2897000000e+00 5.1100000000e-04 0.0000e+00 1.0000e+00
  9000006  2    1    2    0    0 +2.3280348228e-01 -1.9755883685e+00 -3.5944152493e+00 6.4712413069e+00 4.9999996205e+00 4.9567e-08 0.0000e+00
       22  1    1    2    0    0 -2.3280348228e-01 +1.9755883685e+00 +3.5944152493e+00 4.1081586931e+00 0.0000000000e+00 0.0000e+00 -1.0000e+00
       22  1    3    3    0    0 +2.4950099005e+00 -1.7454110677e+00 -2.5378973679e+00 3.9638942025e+00 0.0000000000e+00 0.0000e+00 -1.0000e+00
       22  1    3    3    0    0 -2.2622064182e+00 -2.3017730074e-01 -1.0565178814e+00 2.5073471044e+00 0.0000000000e+00 0.0000e+00 -1.0000e+00
</event>
<event>
 6      1 +5.8088000e-02 1.05794000e+01 7.81860800e-03 1.18400000e-01
      -11 -1    0    0    0    0 +0.0000000000e+00 +0.0000000000e+00 +5.2896999753e+00 5.2897000000e+00 5.1100000000e-04 0.0000e+00 -1.0000e+00
       11 -1    0    0    0    0 -0.0000000000e+00 -0.0000000000e+00 -5.2896999753e+00 5.2897000000e+00 5.1100000000e-04 0.0000e+00 1.0000e+00
  9000006  2    1    2    0    0 -6.2071661768e-02 -1.2783028990e-01 +4.1057008272e+00 6.4712407095e+00 4.9999983563e+00 1.3582e-07 0.0000e+00
       22  1    1    2    0    0 +6.2071661768e-02 +1.2783028990e-01 -4.1057008272e+00 4.1081592905e+00 0.0000000000e+00 0.0000e+00 1.0000e+00
       22  1    3    3    0    0 +1.6555402830e+00 +1.1070374178e+00 +3.8575211375e+00 4.3412918353e+00 0.0000000000e+00 0.0000e+00 -1.0000e+00
       22  1    3    3    0    0 -1.7176119447e+00 -1.2348677077e+00 +2.4817968970e-01 2.1299488742e+00 0.0000000000e+00 0.0000e+00 -1.0000e+00
</event>
<event>
 6      1 +5.8088000e-02 1.05794000e+01 7.81860800e-03 1.18400000e-01
      -11 -1    0    0    0    0 +0.0000000000e+00 +0.0000000000e+00 +5.2896999753e+00 5.2897000000e+00 5.1100000000e-04 0.0000e+00 -1.0000e+00
       11 -1    0    0    0    0 -0.0000000000e+00 -0.0000000000e+00 -5.2896999753e+00 5.2897000000e+00 5.1100000000e-04 0.0000e+00 1.0000e+00
  9000006  2    1    2    0    0 +1.7316747477e+00 +1.6724275382e+00 -3.3288520762e+00 6.4712413556e+00 4.9999997235e+00 1.9239e-07 0.0000e+00
       22  1    1    2    0    0 -1.7316747477e+00 -1.6724275382e+00 +3.3288520762e+00 4.1081586444e+00 0.0000000000e+00 0.0000e+00 -1.0000e+00
       22  1    3    3    0    0 -3.8696899478e-01 +1.6969278485e+00 +7.3413159422e-01 1.8889834101e+00 0.0000000000e+00 0.0000e+00 1.0000e+00
       22  1    3    3    0    0 +2.1186437425e+00 -2.4500310309e-02 -4.0629836704e+00 4.5822579455e+00 0.0000000000e+00 0.0000e+00 1.0000e+00
</event>
<event>
 6      1 +5.8088000e-02 1.05794000e+01 7.81860800e-03 1.18400000e-01
      -11 -1    0    0    0    0 +0.0000000000e+00 +0.0000000000e+00 +5.2896999753e+00 5.2897000000e+00 5.1100000000e-04 0.0000e+00 -1.0000e+00
       11 -1    0    0    0    0 -0.0000000000e+00 -0.0000000000e+00 -5.2896999753e+00 5.2897000000e+00 5.1100000000e-04 0.0000e+00 1.0000e+00
  9000006  2    1    2    0    0 +3.3060686883e+00 +6.5241532998e-01 +2.3497299230e+00 6.4712414532e+00 4.9999999300e+00 1.7934e-07 0.0000e+00
       22  1    1    2    0    0 -3.3060686883e+00 -6.5241532998e-01 -2.3497299230e+00 4.1081585468e+00 0.0000000000e+00 0.0000e+00 1.0000e+00
       22  1    3    3    0    0 +2.5209716756e+00 +4.8179972881e-01 -1.1988951375e+00 2.8328040382e+00 0.0000000000e+00 0.0000e+00 1.0000e+00
       22  1    3    3    0    0 +7.8509701266e-01 +1.7061560116e-01 +3.5486250606e+00 3.6384374150e+00 0.0000000000e+00 0.0000e+00 1.0000e+00
</event>
<event>
 6      1 +5.8088000e-02 1.05794000e+01 7.81860800e-03 1.18400000e-01
      -11 -1    0    0    0    0 +0.0000000000e+00 +0.0000000000e+00 +5.2896999753e+00 5.2897000000e+00 5.1100000000e-04 0.0000e+00 1.0000e+00
       11 -1    0    0    0    0 -0.0000000000e+00 -0.0000000000e+00 -5.2896999753e+00 5.2897000000e+00 5.1100000000e-04 0.0000e+00 -1.0000e+00
  9000006  2    1    2    0    0 +1.6440177437e+00 +2.2789505742e+00 -2.9967575004e+00 6.4712415832e+00 5.0000002051e+00 3.7819e-07 0.0000e+00
       22  1    1    2    0    0 -1.6440177437e+00 -2.2789505742e+00 +2.9967575004e+00 4.1081584168e+00 0.0000000000e+00 0.0000e+00 1.0000e+00
       22  1    3    3    0    0 +1.2993277461e+00 -1.3426686571e+00 -1.9331991953e-01 1.8783993999e+00 0.0000000000e+00 0.0000e+00 -1.0000e+00
       22  1    3    3    0    0 +3.4468999760e-01 +3.6216192313e+00 -2.8034375808e+00 4.5928421833e+00 0.0000000000e+00 0.0000e+00 -1.0000e+00
</event>
<event>
 6      1 +5.8088000e-02 1.05794000e+01 7.81860800e-03 1.18400000e-01
      -11 -1    0    0    0    0 +0.0000000000e+00 +0.0000000000e+00 +5.2896999753e+00 5.2897000000e+00 5.1100000000e-04 0.0000e+00 1.0000e+00
       11 -1    0    0    0    0 -0.0000000000e+00 -0.0000000000e+00 -5.2896999753e+00 5.2897000000e+00 5.1100000000e-04 0.0000e+00 -1.0000e+00
  9000006  2    1    2    0    0 -1.3902096053e+00 -1.2722978015e+00 -3.6504168307e+00 6.4712413516e+00 4.9999997151e+00 3.2024e-07 0.0000e+00
       22  1    1    2    0    0 +1.3902096053e+00 +1.2722978015e+00 +3.6504168307e+00 4.1081586484e+00 0.0000000000e+00 0.0000e+00 1.0000e+00
       22  1    3    3    0    0 -2.1874626780e+00 -1.4123563034e+00 +1.2814810858e-01 2.6069455754e+00 0.0000000000e+00 0.0000e+00 -1.0000e+00
       22  1    3    3    0    0 +7.9725307272e-01 +1.4005850189e-01 -3.7785649393e+00 3.8642957762e+00 0.0000000000e+00 0.0000e+00 -1.0000e+00
</event>
<event>
 6      1 +5.8088000e-02 1.05794000e+01 7.81860800e-03 1.18400000e-01
      -11 -1    0    0    0    0 +0.0000000000e+00 +0.0000000000e+00 +5.2896999753e+00 5.2897000000e+00 5.1100000000e-04 0.0000e+00 -1.0000e+00
       11 -1    0    0    0    0 -0.0000000000e+00 -0.0000000000e+00 -5.2896999753e+00 5.2897000000e+00 5.1100000000e-04 0.0000e+00 1.0000e+00
  9000006  2    1    2    0    0 +5.7746933222e-01 -3.2196213321e+00 +2.4854643023e+00 6.4712416353e+00 5.0000003153e+00 2.8181e-07 0.0000e+00
       22  1    1    2    0    0 -5.7746933222e-01 +3.2196213321e+00 -2.4854643023e+00 4.1081583647e+00 0.0000000000e+00 0.0000e+00 1.0000e+00
       22  1    3    3    0    0 +2.4586676118e+00 -2.0055757754e+00 +2.7730350400e+00 4.2139178859e+00 0.0000000000e+00 0.0000e+00 -1.0000e+00
       22  1    3    3    0    0 -1.8811982795e+00 -1.2140455567e+00 -2.8757073771e-01 2.2573237494e+00 0.0000000000e+00 0.0000e+00 -1.0000e+00
</event>
<event>
 6      1 +5.8088000e-02 1.05794000e+01 7.81860800e-03 1.18400000e-01
      -11 -1    0    0    0    0 +0.0000000000e+00 +0.0000000000e+00 +5.2896999753e+00 5.2897000000e+00 5.1100000000e-04 0.0000e+00 -1.0000e+00
       11 -1    0    0    0    0 -0.0000000000e+00 -0.0000000000e+00 -5.2896999753e+00 5.2897000000e+00 5.1100000000e-04 0.0000e+00 1.0000e+00
  9000006  2    1    2    0    0 +2.6159453595e+00 -1.0970591741e+00 +2.9715740639e+00 6.4712420950e+00 5.0000012879e+00 1.9577e-07 0.0000e+00
       22  1    1    2    0    0 -2.6159453595e+00 +1.0970591741e+00 -2.9715740639e+00 4.1081579050e+00 0.0000000000e+00 0.0000e+00 1.0000e+00
       22  1    3    3    0    0 +1.4024085915e+00 +1.7032591837e+00 +2.5792541574e+00 3.3941705486e+00 0.0000000000e+00 0.0000e+00 -1.0000e+00
       22  1    3    3    0    0 +1.2135367680e+00 -2.8003183578e+00 +3.9231990652e-01 3.0770715464e+00 0.0000000000e+00 0.0000e+00 -1.0000e+00
</event>
<event>
 6      1 +5.8088000e-02 1.05794000e+01 7.81860800e-03 1.18400000e-01
      -11 -1    0    0    0    0 +0.0000000000e+00 +0.0000000000e+00 +5.2896999753e+00 5.2897000000e+00 5.1100000000e-04 0.0000e+00 1.0000e+00
       11 -1    0    0    0    0 -0.0000000000e+00 -0.0000000000e+00 -5.2896999753e+00 5.2897000000e+00 5.1100000000e-04 0.0000e+00 -1.0000e+00
  9000006  2    1    2    0    0 +1.5957725670e+00 -2.7578029404e-01 +3.7755029156e+00 6.4712413953e+00 4.9999998074e+00 5.6486e-08 0.0000e+00
       22  1    1    2    0    0 -1.5957725670e+00 +2.7578029404e-01 -3.7755029156e+00 4.1081586047e+00 0.0000000000e+00 0.0000e+00 -1.0000e+00
       22  1    3    3    0    0 +2.4210142466e+00 +1.7137319760e+00 +2.8936208939e+00 4.1438181844e+00 0.0000000000e+00 0.0000e+00 1.0000e+00
       22  1    3    3    0    0 -8.2524167960e-01 -1.9895122700e+00 +8.8188202169e-01 2.3274232109e+00 0.0000000000e+00 0.0000e+00 1.0000e+00
</event>
<event>
 6      1 +5.8088000e-02 1.05794000e+01 7.81860800e-03 1.18400000e-01
      -11 -1    0    0    0    0 +0.0000000000e+00 +0.0000000000e+00 +5.2896999753e+00 5.2897000000e+00 5.1100000000e-04 0.0000e+00 -1.0000e+00
       11 -1    0    0    0    0 -0.0000000000e+00 -0.0000000000e+00 -5.2896999753e+00 5.2897000000e+00 5.1100000000e-04 0.0000e+00 1.0000e+00
  9000006  2    1    2    0    0 -1.3242541020e+00 -3.5946178503e+00 -1.4839215892e+00 6.4712435157e+00 5.0000042941e+00 2.7164e-08 0.0000e+00
       22  1    1    2    0    0 +1.3242541020e+00 +3.5946178503e+00 +1.4839215892e+00 4.1081564843e+00 0.0000000000e+00 0.0000e+00 -1.0000e+00
       22  1    3    3    0    0 -1.8834424373e+00 -9.6886358369e-01 +1.3939551747e+00 2.5355794382e+00 0.0000000000e+00 0.0000e+00 1.0000e+00
       22  1    3    3    0    0 +5.5918833536e-01 -2.6257542666e+00 -2.8778767639e+00 3.9356640775e+00 0.0000000000e+00 0.0000e+00 1.0000e+00
</event>
<event>
 6      1 +5.8088000e-02 1.05794000e+01 7.81860800e-03 1.18400000e-01
      -11 -1    0    0    0    0 +0.0000000000e+00 +0.0000000000e+00 +5.2896999753e+00 5.2897000000e+00 5.1100000000e-04 0.0000e+00 1.0000e+00
       11 -1    0    0    0    0 -0.0000000000e+00 -0.0000000000e+00 -5.2896999753e+00 5.2897000000e+00 5.1100000000e-04 0.0000e+00 -1.0000e+00
  9000006  2    1    2    0    0 -1.8481458272e-01 +4.0714941384e+00 +5.1550585670e-01 6.4712413812e+00 4.9999997777e+00 3.2039e-08 0.0000e+00
       22  1    1    2    0    0 +1.8481458272e-01 -4.0714941384e+00 -5.1550585670e-01 4.1081586188e+00 0.0000000000e+00 0.0000e+00 1.0000e+00
       22  1    3    3    0    0 +1.2478146960e+00 +1.4005981593e-01 -1.3902561223e+00 1.8733580419e+00 0.0000000000e+00 0.0000e+00 -1.0000e+00
       22  1    3    3    0    0 -1.4326292787e+00 +3.9314343224e+00 +1.9057619790e+00 4.5978833393e+00 0.0000000000e+00 0.0000e+00 -1.0000e+00
</event>
<event>
 6      1 +5.8088000e-02 1.05794000e+01 7.81860800e-03 1.18400000e-01
      -11 -1    0    0    0    0 +0.0000000000e+00 +0.0000000000e+00 +5.2896999753e+00 5.2897000000e+00 5.1100000000e-04 0.0000e+00 1.0000e+00
       11 -1    0    0    0    0 -0.0000000000e+00 -0.0000000000e+00 -5.2896999753e+00 5.2897000000e+00 5.1100000000e-04 0.0000e+00 -1.0000e+00
  9000006  2    1    2    0    0 -9.0007338739e-01 +8.0533574147e-01 +3.9266107229e+00 6.4712411024e+00 4.9999991877e+00 3.9374e-07 0.0000e+00
       22  1    1    2    0    0 +9.0007338739e-01 -8.0533574147e-01 -3.9266107229e+00 4.1081588976e+00 0.0000000000e+00 0.0000e+00 -1.0000e+00
       22  1    3    3    0    0 +6.6419176191e-01 -1.4487905943e+00 +3.2883944594e+00 3.6542691476e+00 0.0000000000e+00 0.0000e+00 -1.0000e+00
       22  1    3    3    0    0 -1.5642651493e+00 +2.2541263358e+00 +6.3821626352e-01 2.8169719548e+00 0.0000000000e+00 0.0000e+00 -1.0000e+00
</event>
<event>
 6      1 +5.8088000e-02 1.05794000e+01 7.81860800e-03 1.18400000e-01
      -11 -1    0    0    0    0 +0.0000000000e+00 +0.0000000000e+00 +5.2896999753e+00 5.2897000000e+00 5.1100000000e-04 0.0000e+00 -1.0000e+00
       11 -1    0    0    0    0 -0.0000000000e+00 -0.0000000000e+00 -5.2896999753e+00 5.2897000000e+00 5.1100000000e-04 0.0000e+00 1.0000e+00
  9000006  2    1    2    0    0 +2.9885604643e-01 -3.6785860013e+00 +1.8043439111e+00 6.4712414278e+00 4.9999998762e+00 1.5862e-07 0.0000e+00
       22  1    1    2    0    0 -2.9885604643e-01 +3.6785860013e+00 -1.8043439111e+00 4.1081585722e+00 0.0000000000e+00 0.0000e+00 1.0000e+00
       22  1    3    3    0    0 +8.8335027620e-02 +1.1994158067e+00 -1.5021578408e-01 1.2120091321e+00 0.0000000000e+00 0.0000e+00 -1.0000e+00
       22  1    3    3    0    0 +2.1052101881e-01 -4.8780018080e+00 +1.9545596952e+00 5.2592322957e+00 0.0000000000e+00 0.0000e+00 -1.0000e+00
</event>
<event>
 6      1 +5.8088000e-02 1.05794000e+01 7.81860800e-03 1.18400000e-01
      -11 -1    0    0    0    0 +0.0000000000e+00 +0.0000000000e+00 +5.2896999753e+00 5.2897000000e+00 5.1100000000e-04 0.0000e+00 1.0000e+00
       11 -1    0    0    0    0 -0.0000000000e+00 -0.0000000000e+00 -5.2896999753e+00 5.2897000000e+00 5.1100000000e-04 0.0000e+00 -1.0000e+00
  9000006  2    1    2    0    0 +7.3827759270e-01 -1.5054717744e-01 +4.0384705318e+00 6.4712419587e+00 5.0000009995e+00 6.6919e-07 0.0000e+00
       22  1    1    2    0    0 -7.3827759270e-01 +1.5054717744e-01 -4.0384705318e+00 4.1081580413e+00 0.0000000000e+00 0.0000e+00 -1.0000e+00
       22  1    3    3    0    0 +1.2372436796e-01 +2.2667825310e+00 +8.5223419525e-01 2.4248533741e+00 0.0000000000e+00 0.0000e+00 -1.0000e+00
       22  1    3    3    0    0 +6.1455322474e-01 -2.4173297085e+00 +3.1862363365e+00 4.0463885846e+00 0.0000000000e+00 0.0000e+00 -1.0000e+00
</event>
<event>
 6      1 +5.8088000e-02 1.05794000e+01 7.81860800e-03 1.18400000e-01
      -11 -1    0    0    0    0 +0.0000000000e+00 +0.0000000000e+00 +5.2896999753e+00 5.2897000000e+00 5.1100000000e-04 0.0000e+00 -1.0000e+00
       11 -1    0    0    0    0 -0.0000000000e+00 -0.0000000000e+00 -5.2896999753e+00 5.2897000000e+00 5.1100000000e-04 0.0000e+00 1.0000e+00
  9000006  2    1    2    0    0 -2.9461108210e+00 +2.4422978128e+00 +1.4941803339e+00 6.4712419643e+00 5.0000010113e+00 1.0350e-06 0.0000e+00
       22  1    1    2    0    0 +2.9461108210e+00 -2.4422978128e+00 -1.4941803339e+00 4.1081580357e+00 0.0000000000e+00 0.0000e+00 1.0000e+00
       22  1    3    3    0    0 -3.6277485082e+00 +3.1153369244e+00 +1.0396841196e-01 4.7829585846e+00 0.0000000000e+00 0.0000e+00 1.0000e+00
       22  1    3    3    0    0 +6.8163768717e-01 -6.7303911151e-01 +1.3902119220e+00 1.6882833797e+00 0.0000000000e+00 0.0000e+00 1.0000e+00
</event>
<event>
 6      1 +5.8088000e-02 1.05794000e+01 7.81860800e-03 1.18400000e-01
      -11 -1    0    0    0    0 +0.0000000000e+00 +0.0000000000e+00 +5.2896999753e+00 5.2897000000e+00 5.1100000000e-04 0.0000e+00 1.0000e+00
       11 -1    0    0    0    0 -0.0000000000e+00 -0.0000000000e+00 -5.2896999753e+00 5.2897000000e+00 5.1100000000e-04 0.0000e+00 -1.0000e+00
  9000006  2    1    2    0    0 -1.5142052767e+00 -2.4288246940e+00 -2.9470254186e+00 6.4712415523e+00 5.0000001396e+00 8.6830e-07 0.0000e+00
       22  1    1    2    0    0 +1.5142052767e+00 +2.4288246940e+00 +2.9470254186e+00 4.1081584477e+00 0.0000000000e+00 0.0000e+00 1.0000e+00
       22  1    3    3    0    0 +1.3307346586e+00 +4.9404225542e-01 -1.6816265690e+00 2.2006363624e+00 0.0000000000e+00 0.0000e+00 -1.0000e+00
       22  1    3    3    0    0 -2.8449399353e+00 -2.9228669494e+00 -1.2653988496e+00 4.2706051899e+00 0.0000000000e+00 0.0000e+00 -1.0000e+00
</event>
<event>
 6      1 +5.8088000e-02 1.05794000e+01 7.81860800e-03 1.18400000e-01
      -11 -1    0    0    0    0 +0.0000000000e+00 +0.0000000000e+00 +5.2896999753e+00 5.2897000000e+00 5.1100000000e-04 0.0000e+00 1.0000e+00
       11 -1    0    0    0    0 -0.0000000000e+00 -0.0000000000e+00 -5.2896999753e+00 5.2897000000e+00 5.1100000000e-04 0.0000e+00 -1.0000e+00
  9000006  2    1    2    0    0 -4.8096879972e-01 -1.3908964880e+00 +3.8354972878e+00 6.4712418396e+00 5.0000007475e+00 5.2464e-07 0.0000e+00
       22  1    1    2    0    0 +4.8096879972e-01 +1.3908964880e+00 -3.8354972878e+00 4.1081581604e+00 0.0000000000e+00 0.0000e+00 -1.0000e+00
       22  1    3    3    0    0 -8.0122912337e-01 -1.8510950434e+00 +4.8829604663e+00 5.2831641924e+00 0.0000000000e+00 0.0000e+00 1.0000e+00
       22  1    3    3    0    0 +3.2026032365e-01 +4.6019855547e-01 -1.0474631785e+00 1.1880776472e+00 0.0000000000e+00 0.0000e+00 1.0000e+00
</event>
<event>
 6      1 +5.8088000e-02 1.05794000e+01 7.81860800e-03 1.18400000e-01
      -11 -1    0    0    0    0 +0.0000000000e+00 +0.0000000000e+00 +5.2896999753e+00 5.2897000000e+00 5.1100000000e-04 0.0000e+00 1.0000e+00
       11 -1    0    0    0    0 -0.0000000000e+00 -0.0000000000e+00 -5.2896999753e+00 5.2897000000e+00 5.1100000000e-04 0.0000e+00 -1.0000e+00
  9000006  2    1    2    0    0 -7.2012425759e-01 +2.4938016806e+00 +3.1842330842e+00 6.4712415192e+00 5.0000000697e+00 3.2190e-07 0.0000e+00
       22  1    1    2    0    0 +7.2012425759e-01 -2.4938016806e+00 -3.1842330842e+00 4.1081584808e+00 0.0000000000e+00 0.0000e+00 -1.0000e+00
       22  1    3    3    0    0 -2.6870196087e+00 +1.2292423361e+00 +2.8569062226e+00 4.1101124392e+00 0.0000000000e+00 0.0000e+00 -1.0000e+00
       22  1    3    3    0    0 +1.9668953511e+00 +1.2645593446e+00 +3.2732686156e-01 2.3611290800e+00 0.0000000000e+00 0.0000e+00 -1.0000e+00
</event>
<event>
 6      1 +5.8088000e-02 1.05794000e+01 7.81860800e-03 1.18400000e-01
      -11 -1    0    0    0    0 +0.0000000000e+00 +0.0000000000e+00 +5.2896999753e+00 5.2897000000e+00 5.1100000000e-04 0.0000e+00 1.0000e+00
       11 -1    0    0    0    0 -0.0000000000e+00 -0.0000000000e+00 -5.2896999753e+00 5.2897000000e+00 5.1100000000e-04 0.0000e+00 -1.0000e+00
  9000006  2    1    2    0    0 -2.4846264417e+00 -1.5033633096e+00 -2.9057700237e+00 6.4712411391e+00 4.9999992655e+00 2.2411e-06 0.0000e+00
       22  1    1    2    0    0 +2.4846264417e+00 +1.5033633096e+00 +2.9057700237e+00 4.1081588609e+00 0.0000000000e+00 0.0000e+00 -1.0000e+00
       22  1    3    3    0    0 +1.0590442675e+00 -4.6985915546e-01 +6.6465994183e-01 1.3357077617e+00 0.0000000000e+00 0.0000e+00 -1.0000e+00
       22  1    3    3    0    0 -3.5436707092e+00 -1.0335041542e+00 -3.5704299655e+00 5.1355333774e+00 0.0000000000e+00 0.0000e+00 -1.0000e+00
</event>
<event>
 6      1 +5.8088000e-02 1.05794000e+01 7.81860800e-03 1.18400000e-01
      -11 -1    0    0    0    0 +0.0000000000e+00 +0.0000000000e+00 +5.2896999753e+00 5.2897000000e+00 5.1100000000e-04 0.0000e+00 1.0000e+00
       11 -1    0    0    0    0 -0.0000000000e+00 -0.0000000000e+00 -5.2896999753e+00 5.2897000000e+00 5.1100000000e-04 0.0000e+00 -1.0000e+00
  9000006  2    1    2    0    0 -1.1349621370e+00 +7.5972494118e-02 +3.9475378482e+00 6.4712415396e+00 5.0000001129e+00 4.5875e-07 0.0000e+00
       22  1    1    2    0    0 +1.1349621370e+00 -7.5972494118e-02 -3.9475378482e+00 4.1081584604e+00 0.0000000000e+00 0.0000e+00 -1.0000e+00
       22  1    3    3    0    0 +1.5417697822e+00 +8.9066362780e-01 +3.0520627879e+00 3.5334718083e+00 0.0000000000e+00 0.0000e+00 -1.0000e+00
       22  1    3    3    0    0 -2.6767319192e+00 -8.1469113369e-01 +8.9547506035e-01 2.9377697313e+00 0.0000000000e+00 0.0000e+00 -1.0000e+00
</event>
<event>
 6      1 +5.8088000e-02 1.05794000e+01 7.81860800e-03 1.18400000e-01
      -11 -1    0    0    0    0 +0.0000000000e+00 +0.0000000000e+00 +5.2896999753e+00 5.2897000000e+00 5.1100000000e-04 0.0000e+00 -1.0000e+00
       11 -1    0    0    0    0 -0.0000000000e+00 -0.0000000000e+00 -5.2896999753e+00 5.2897000000e+00 5.1100000000e-04 0.0000e+00 1.0000e+00
  9000006  2    1    2    0    0 -1.0052197113e+00 -2.3587997708e+00 +3.2097607871e+00 6.4712413690e+00 4.9999997519e+00 2.6822e-06 0.0000e+00
       22  1    1    2    0    0 +1.0052197113e+00 +2.3587997708e+00 -3.2097607871e+00 4.1081586310e+00 0.0000000000e+00 0.0000e+00 1.0000e+00
       22  1    3    3    0    0 +1.2871152039e+00 -2.8239804048e+00 +1.0190546024e+00 3.2664970776e+00 0.0000000000e+00 0.0000e+00 1.0000e+00
       22  1    3    3    0    0 -2.2923349152e+00 +4.6518063407e-01 +2.1907061848e+00 3.2047442915e+00 0.0000000000e+00 0.0000e+00 1.0000e+00
</event>
<event>
 6      1 +5.8088000e-02 1.05794000e+01 7.81860800e-03 1.18400000e-01
      -11 -1    0    0    0    0 +0.0000000000e+00 +0.0000000000e+00 +5.2896999753e+00 5.2897000000e+00 5.1100000000e-04 0.0000e+00 1.0000e+00
       11 -1    0    0    0    0 -0.0000000000e+00 -0.0000000000e+00 -5.2896999753e+00 5.2897000000e+00 5.1100000000e-04 0.0000e+00 -1.0000e+00
  9000006  2    1    2    0    0 -2.4655293450e+00 +1.2537002779e+00 -3.0374934311e+00 6.4712415705e+00 5.0000001781e+00 1.4637e-08 0.0000e+00
       22  1    1    2    0    0 +2.4655293450e+00 -1.2537002779e+00 +3.0374934311e+00 4.1081584295e+00 0.0000000000e+00 0.0000e+00 1.0000e+00
       22  1    3    3    0    0 -2.0932991749e+00 +6.5889661939e-01 -4.4121890922e+00 4.9278249539e+00 0.0000000000e+00 0.0000e+00 1.0000e+00
       22  1    3    3    0    0 -3.7223017013e-01 +5.9480365853e-01 +1.3746956611e+00 1.5434166166e+00 0.0000000000e+00 0.0000e+00 1.0000e+00
</event>
<event>
 6      1 +5.8088000e-02 1.05794000e+01 7.81860800e-03 1.18400000e-01
      -11 -1    0    0    0    0 +0.0000000000e+00 +0.0000000000e+00 +5.2896999753e+00 5.2897000000e+00 5.1100000000e-04 0.0000e+00 -1.0000e+00
       11 -1    0    0    0    0 -0.0000000000e+00 -0.0000000000e+00 -5.2896999753e+00 5.2897000000e+00 5.1100000000e-04 0.0000e+00 1.0000e+00
  9000006  2    1    2    0    0 +1.4418324911e+00 -2.0339253491e+00 +3.2651543445e+00 6.4712415134e+00 5.0000000573e+00 6.7922e-07 0.0000e+00
       22  1    1    2    0    0 -1.4418324911e+00 +2.0339253491e+00 -3.2651543445e+00 4.1081584866e+00 0.0000000000e+00 0.0000e+00 1.0000e+00
       22  1    3    3    0    0 +7.8583736069e-01 -2.9114149528e+00 +4.1029995205e+00 5.0920018117e+00 0.0000000000e+00 0.0000e+00 1.0000e+00
       22  1    3    3    0    0 +6.5599513039e-01 +8.7748960370e-01 -8.3784517602e-01 1.3792397017e+00 0.0000000000e+00 0.0000e+00 1.0000e+00
</event>
<event>
 6      1 +5.8088000e-02 1.05794000e+01 7.81860800e-03 1.18400000e-01
      -11 -1    0    0    0    0 +0.0000000000e+00 +0.0000000000e+00 +5.2896999753e+00 5.2897000000e+00 5.1100000000e-04 0.0000e+00 1.0000e+00
       11 -1    0    0    0    0 -0.0000000000e+00 -0.0000000000e+00 -5.2896999753e+00 5.2897000000e+00 5.1100000000e-04 0.0000e+00 -1.0000e+00
  9000006  2    1    2    0    0 -3.8062745216e+00 +6.3391443991e-01 -1.4097493651e+00 6.4712414681e+00 4.9999999614e+00 2.6131e-07 0.0000e+00
       22  1    1    2    0    0 +3.8062745216e+00 -6.3391443991e-01 +1.4097493651e+00 4.1081585319e+00 0.0000000000e+00 0.0000e+00 1.0000e+00
       22  1    3    3    0    0 -3.2295977118e+00 -1.8793480529e+00 -7.8897769047e-01 3.8189967636e+00 0.0000000000e+00 0.0000e+00 -1.0000e+00
       22  1    3    3    0    0 -5.7667680979e-01 +2.5132624928e+00 -6.2077167466e-01 2.6522447045e+00 0.0000000000e+00 0.0000e+00 -1.0000e+00
</event>
<event>
 6      1 +5.8088000e-02 1.05794000e+01 7.81860800e-03 1.18400000e-01
      -11 -1    0    0    0    0 +0.0000000000e+00 +0.0000000000e+00 +5.2896999753e+00 5.2897000000e+00 5.1100000000e-04 0.0000e+00 -1.0000e+00
       11 -1    0    0    0    0 -0.0000000000e+00 -0.0000000000e+00 -5.2896999753e+00 5.2897000000e+00 5.1100000000e-04 0.0000e+00 1.0000e+00
  9000006  2    1    2    0    0 +3.5064282696e-01 +4.0773437486e+00 -3.5956241252e-01 6.4712413414e+00 4.9999996934e+00 5.2738e-07 0.0000e+00
       22  1    1    2    0    0 -3.5064282696e-01 -4.0773437486e+00 +3.5956241252e-01 4.1081586586e+00 0.0000000000e+00 0.0000e+00 1.0000e+00
       22  1    3    3    0    0 +2.0119708823e+00 +2.8157821285e+00 -1.8340711346e+00 3.9166915571e+00 0.0000000000e+00 0.0000e+00 -1.0000e+00
       22  1    3    3    0    0 -1.6613280553e+00 +1.2615616201e+00 +1.4745087221e+00 2.5545497843e+00 0.0000000000e+00 0.0000e+00 -1.0000e+00
</event>
<event>
 6      1 +5.8088000e-02 1.05794000e+01 7.81860800e-03 1.18400000e-01
      -11 -1    0    0    0    0 +0.0000000000e+00 +0.0000000000e+00 +5.2896999753e+00 5.2897000000e+00 5.1100000000e-04 0.0000e+00 1.0000e+00
       11 -1    0    0    0    0 -0.0000000000e+00 -0.0000000000e+00 -5.2896999753e+00 5.2897000000e+00 5.1100000000e-04 0.0000e+00 -1.0000e+00
  9000006  2    1    2    0    0 -2.8076134667e+00 +2.4724704212e+00 -1.6973992726e+00 6.4712413306e+00 4.9999996706e+00 1.9110e-07 0.0000e+00
       22  1    1    2    0    0 +2.8076134667e+00 -2.4724704212e+00 +1.6973992726e+00 4.1081586694e+00 0.0000000000e+00 0.0000e+00 1.0000e+00
       22  1    3    3    0    0 +4.3110615172e-01 -1.8759569387e-01 -2.2004043487e+00 2.2500719891e+00 0.0000000000e+00 0.0000e+00 -1.0000e+00
       22  1    3    3    0    0 -3.2387196184e+00 +2.6600661150e+00 +5.0300507607e-01 4.2211693415e+00 0.0000000000e+00 0.0000e+00 -1.0000e+00
</event>
<event>
 6      1 +5.8088000e-02 1.05794000e+01 7.81860800e-03 1.18400000e-01
      -11 -1    0    0    0    0 +0.0000000000e+00 +0.0000000000e+00 +5.2896999753e+00 5.2897000000e+00 5.1100000000e-04 0.0000e+00 1.0000e+00
       11 -1    0    0    0    0 -0.0000000000e+00 -0.0000000000e+00 -5.2896999753e+00 5.2897000000e+00 5.1100000000e-04 0.0000e+00 -1.0000e+00
  9000006  2    1    2    0    0 -1.0784412940e+00 -5.0374592786e-01 +3.9319413810e+00 6.4712424314e+00 5.0000019998e+00 5.8175e-08 0.0000e+00
       22  1    1    2    0    0 +1.0784412940e+00 +5.0374592786e-01 -3.9319413810e+00 4.1081575686e+00 0.0000000000e+00 0.0000e+00 -1.0000e+00
       22  1    3    3    0    0 +6.7685290701e-01 -8.2986841133e-01 -8.4978565987e-01 1.3670944026e+00 0.0000000000e+00 0.0000e+00 1.0000e+00
       22  1    3    3    0    0 -1.7552942010e+00 +3.2612248347e-01 +4.7817270409e+00 5.1041480288e+00 0.0000000000e+00 0.0000e+00 1.0000e+00
</event>
<event>
 6      1 +5.8088000e-02 1.05794000e+01 7.81860800e-03 1.18400000e-01
      -11 -1    0    0    0    0 +0.0000000000e+00 +0.0000000000e+00 +5.2896999753e+00 5.2897000000e+00 5.1100000000e-04 0.0000e+00 1.0000e+00
       11 -1    0    0    0    0 -0.0000000000e+00 -0.0000000000e+00 -5.2896999753e+00 5.2897000000e+00 5.1100000000e-04 0.0000e+00 -1.0000e+00
  9000006  2    1    2    0    0 +1.0398253274e+00 -1.7447692095e+00 -3.5709259161e+00 6.4712412635e+00 4.9999995286e+00 3.3787e-07 0.0000e+00
       22  1    1    2    0    0 -1.0398253274e+00 +1.7447692095e+00 +3.5709259161e+00 4.1081587365e+00 0.0000000000e+00 0.0000e+00 1.0000e+00
       22  1    3    3    0    0 -3.9939421043e-01 +1.5399369511e+00 -2.0013556104e+00 2.5566278235e+00 0.0000000000e+00 0.0000e+00 -1.0000e+00
       22  1    3    3    0    0 +1.4392195379e+00 -3.2847061606e+00 -1.5695703057e+00 3.9146134400e+00 0.0000000000e+00 0.0000e+00 -1.0000e+00
</event>
<event>
 6      1 +5.8088000e-02 1.05794000e+01 7.81860800e-03 1.18400000e-01
      -11 -1    0    0    0    0 +0.0000000000e+00 +0.0000000000e+00 +5.2896999753e+00 5.2897000000e+00 5.1100000000e-04 0.0000e+00 1.0000e+00
       11 -1    0    0    0    0 -0.0000000000e+00 -0.0000000000e+00 -5.2896999753e+00 5.2897000000e+00 5.1100000000e-04 0.0000e+00 -1.0000e+00
  9000006  2    1    2    0    0 -3.4528629151e+00 -1.6896573668e+00 -1.4490553626e+00 6.4712415596e+00 5.0000001551e+00 5.7113e-07 0.0000e+00
       22  1    1    2    0    0 +3.4528629151e+00 +1.6896573668e+00 +1.4490553626e+00 4.1081584404e+00 0.0000000000e+00 0.0000e+00 1.0000e+00
       22  1    3    3    0    0 -3.1246800435e+00 +1.1597382550e+00 -1.3653798095e+00 3.6017884750e+00 0.0000000000e+00 0.0000e+00 1.0000e+00
       22  1    3    3    0    0 -3.2818287160e-01 -2.8493956217e+00 -8.3675553075e-02 2.8694530846e+00 0.0000000000e+00 0.0000e+00 1.0000e+00
</event>
<event>
 6      1 +5.8088000e-02 1.05794000e+01 7.81860800e-03 1.18400000e-01
      -11 -1    0    0    0    0 +0.0000000000e+00 +0.0000000000e+00 +5.2896999753e+00 5.2897000000e+00 5.1100000000e-04 0.0000e+00 1.0000e+00
       11 -1    0    0    0    0 -0.0000000000e+00 -0.0000000000e+00 -5.2896999753e+00 5.2897000000e+00 5.1100000000e-04 0.0000e+00 -1.0000e+00
  9000006  2    1    2    0    0 +2.6762383036e-01 +3.9698518275e+00 -1.0225557972e+00 6.4712414825e+00 4.9999999919e+00 6.7614e-08 0.0000e+00
       22  1    1    2    0    0 -2.6762383036e-01 -3.9698518275e+00 +1.0225557972e+00 4.1081585175e+00 0.0000000000e+00 0.0000e+00 1.0000e+00
       22  1    3    3    0    0 +1.1649585118e+00 +6.8726246967e-01 +1.6576732768e+00 2.1394716004e+00 0.0000000000e+00 0.0000e+00 1.0000e+00
       22  1    3    3    0    0 -8.9733468140e-01 +3.2825893578e+00 -2.6802290740e+00 4.3317698821e+00 0.0000000000e+00 0.0000e+00 1.0000e+00
</event>
<event>
 6      1 +5.8088000e-02 1.05794000e+01 7.81860800e-03 1.18400000e-01
      -11 -1    0    0    0    0 +0.0000000000e+00 +0.0000000000e+00 +5.2896999753e+00 5.2897000000e+00 5.1100000000e-04 0.0000e+00 -1.0000e+00
       11 -1    0    0    0    0 -0.0000000000e+00 -0.0000000000e+00 -5.2896999753e+00 5.2897000000e+00 5.1100000000e-04 0.0000e+00 1.0000e+00
  9000006  2    1    2    0    0 -1.6416654058e+00 -2.7311927722e+00 -2.5927756518e+00 6.4712416725e+00 5.0000003941e+00 1.0841e-07 0.0000e+00
       22  1    1    2    0    0 +1.6416654058e+00 +2.7311927722e+00 +2.5927756518e+00 4.1081583275e+00 0.0000000000e+00 0.0000e+00 -1.0000e+00
       22  1    3    3    0    0 +1.0268841471e+00 -1.2512695437e+00 +8.8477597860e-01 1.8447208609e+00 0.0000000000e+00 0.0000e+00 -1.0000e+00
       22  1    3    3    0    0 -2.6685495528e+00 -1.4799232285e+00 -3.4775516304e+00 4.6265208116e+00 0.0000000000e+00 0.0000e+00 -1.0000e+00
</event>
<event>
 6      1 +5.8088000e-02 1.05794000e+01 7.81860800e-03 1.18400000e-01
      -11 -1    0    0    0    0 +0.0000000000e+00 +0.0000000000e+00 +5.2896999753e+00 5.2897000000e+00 5.1100000000e-04 0.0000e+00 -1.0000e+00
       11 -1    0    0    0    0 -0.0000000000e+00 -0.0000000000e+00 -5.2896999753e+00 5.2897000000e+00 5.1100000000e-04 0.0000e+00 1.0000e+00
  9000006  2    1    2    0    0 -3.4402220624e+00 -2.2452919007e+00 -2.2513093556e-02 6.4712409966e+00 4.9999989638e+00 6.7923e-09 0.0000e+00
       22  1    1    2    0    0 +3.4402220624e+00 +2.2452919007e+00 +2.2513093556e-02 4.1081590034e+00 0.0000000000e+00 0.0000e+00 1.0000e+00
       22  1    3    3    0    0 -3.1596162346e+00 -3.3140127012e+00 +1.2885086006e+00 4.7566910082e+00 0.0000000000e+00 0.0000e+00 1.0000e+00
       22  1    3    3    0    0 -2.8060582782e-01 +1.0687208005e+00 -1.3110216942e+00 1.7145499884e+00 0.0000000000e+00 0.0000e+00 1.0000e+00
</event>
<event>
 6      1 +5.8088000e-02 1.05794000e+01 7.81860800e-03 1.18400000e-01
      -11 -1    0    0    0    0 +0.0000000000e+00 +0.0000000000e+00 +5.2896999753e+00 5.2897000000e+00 5.1100000000e-04 0.0000e+00 1.0000e+00
       11 -1    0    0    0    0 -0.0000000000e+00 -0.0000000000e+00 -5.2896999753e+00 5.2897000000e+00 5.1100000000e-04 0.0000e+00 -1.0000e+00
  9000006  2    1    2    0    0 -4.0801970468e+00 +8.5762186247e-02 +4.7075719826e-01 6.4712403837e+00 4.9999976671e+00 4.9508e-08 0.0000e+00
       22  1    1    2    0    0 +4.0801970468e+00 -8.5762186247e-02 -4.7075719826e-01 4.1081596163e+00 0.0000000000e+00 0.0000e+00 -1.0000e+00
       22  1    3    3    0    0 -2.9907801645e+00 +8.4733237820e-01 -1.9783716590e+00 3.6846563710e+00 0.0000000000e+00 0.0000e+00 1.0000e+00
       22  1    3    3    0    0 -1.0894168823e+00 -7.6157019195e-01 +2.4491288572e+00 2.7865840127e+00 0.0000000000e+00 0.0000e+00 1.0000e+00
</event>
<event>
 6      1 +5.8088000e-02 1.05794000e+01 7.81860800e-03 1.18400000e-01
      -11 -1    0    0    0    0 +0.0000000000e+00 +0.0000000000e+00 +5.2896999753e+00 5.2897000000e+00 5.1100000000e-04 0.0000e+00 -1.0000e+00
       11 -1    0    0    0    0 -0.0000000000e+00 -0.0000000000e+00 -5.2896999753e+00 5.2897000000e+00 5.1100000000e-04 0.0000e+00 1.0000e+00
  9000006  2    1    2    0    0 -9.9593551719e-01 -3.9728090777e+00 +3.1915841266e-01 6.4712420655e+00 5.0000012255e+00 3.8443e-08 0.0000e+00
       22  1    1    2    0    0 +9.9593551719e-01 +3.9728090777e+00 -3.1915841266e-01 4.1081579345e+00 0.0000000000e+00 0.0000e+00 1.0000e+00
       22  1    3    3    0    0 -1.0772374819e+00 +9.3888036101e-01 -4.5193926588e-01 1.4987281357e+00 0.0000000000e+00 0.0000e+00 -1.0000e+00
       22  1    3    3    0    0 +8.1301964678e-02 -4.9116894388e+00 +7.7109767855e-01 4.9725139298e+00 0.0000000000e+00 0.0000e+00 -1.0000e+00
</event>
<event>
 6      1 +5.8088000e-02 1.05794000e+01 7.81860800e-03 1.18400000e-01
      -11 -1    0    0    0    0 +0.0000000000e+00 +0.0000000000e+00 +5.2896999753e+00 5.2897000000e+00 5.1100000000e-04 0.0000e+00 -1.0000e+00
       11 -1    0    0    0    0 -0.0000000000e+00 -0.0000000000e+00 -5.2896999753e+00 5.2897000000e+00 5.1100000000e-04 0.0000e+00 1.0000e+00
  9000006  2    1    2    0    0 -1.1208604450e-01 +2.3453194093e-01 -4.0999273130e+00 6.4712407425e+00 4.9999984263e+00 7.2421e-07 0.0000e+00
       22  1    1    2    0    0 +1.1208604450e-01 -2.3453194093e-01 +4.0999273130e+00 4.1081592575e+00 0.0000000000e+00 0.0000e+00 -1.0000e+00
       22  1    3    3    0    0 +7.5634294184e-01 +2.1977356035e+00 -6.5947165418e-01 2.4159882639e+00 0.0000000000e+00 0.0000e+00 -1.0000e+00
       22  1    3    3    0    0 -8.6842898634e-01 -1.9632036626e+00 -3.4404556588e+00 4.0552524786e+00 0.0000000000e+00 0.0000e+00 -1.0000e+00
</event>
<event>
 6      1 +5.8088000e-02 1.05794000e+01 7.81860800e-03 1.18400000e-01
      -11 -1    0    0    0    0 +0.0000000000e+00 +0.0000000000e+00 +5.2896999753e+00 5.2897000000e+00 5.1100000000e-04 0.0000e+00 1.0000e+00
       11 -1    0    0    0    0 -0.0000000000e+00 -0.0000000000e+00 -5.2896999753e+00 5.2897000000e+00 5.1100000000e-04 0.0000e+00 -1.0000e+00
  9000006  2    1    2    0    0 -2.8874535002e-01 -3.2930357033e+00 +2.4391607602e+00 6.4712418683e+00 5.0000008084e+00 4.6294e-07 0.0000e+00
       22  1    1    2    0    0 +2.8874535002e-01 +3.2930357033e+00 -2.4391607602e+00 4.1081581317e+00 0.0000000000e+00 0.0000e+00 1.0000e+00
       22  1    3    3    0    0 -6.3156689007e-01 -4.1701920743e+00 +4.1425061479e-01 4.2380399060e+00 0.0000000000e+00 0.0000e+00 1.0000e+00
       22  1    3    3    0    0 +3.4282154005e-01 +8.7715637096e-01 +2.0249101454e+00 2.2332019623e+00 0.0000000000e+00 0.0000e+00 1.0000e+00
</event>
<event>
 6      1 +5.8088000e-02 1.05794000e+01 7.81860800e-03 1.18400000e-01
      -11 -1    0    0    0    0 +0.0000000000e+00 +0.0000000000e+00 +5.2896999753e+00 5.2897000000e+00 5.1100000000e-04 0.0000e+00 -1.0000e+00
       11 -1    0    0    0    0 -0.0000000000e+00 -0.0000000000e+00 -5.2896999753e+00 5.2897000000e+00 5.1100000000e-04 0.0000e+00 1.0000e+00
  9000006  2    1    2    0    0 -3.8609338605e-01 -4.5816631107e-01 -4.0642316444e+00 6.4712418566e+00 5.0000007836e+00 9.8471e-07 0.0000e+00
       22  1    1    2    0    0 +3.8609338605e-01 +4.5816631107e-01 +4.0642316444e+00 4.1081581434e+00 0.0000000000e+00 0.0000e+00 -1.0000e+00
       22  1    3    3    0    0 +1.0784243857e+00 +1.3842321060e+00 -3.6928649569e+00 4.0885632280e+00 0.0000000000e+00 0.0000e+00 1.0000e+00
       22  1    3    3    0    0 -1.4645177717e+00 -1.8423984170e+00 -3.7136668750e-01 2.3826786286e+00 0.0000000000e+00 0.0000e+00 1.0000e+00
</event>
<event>
 6      1 +5.8088000e-02 1.05794000e+01 7.81860800e-03 1.18400000e-01
      -11 -1    0    0    0    0 +0.0000000000e+00 +0.0000000000e+00 +5.2896999753e+00 5.2897000000e+00 5.1100000000e-04 0.0000e+00 1.0000e+00
       11 -1    0    0    0    0 -0.0000000000e+00 -0.0000000000e+00 -5.2896999753e+00 5.2897000000e+00 5.1100000000e-04 0.0000e+00 -1.0000e+00
  9000006  2    1    2    0    0 -3.9810189148e+00 +8.9231479085e-01 +4.8189678536e-01 6.4712420432e+00 5.0000011784e+00 1.8801e-07 0.0000e+00
       22  1    1    2    0    0 +3.9810189148e+00 -8.9231479085e-01 -4.8189678536e-01 4.1081579568e+00 0.0000000000e+00 0.0000e+00 -1.0000e+00
       22  1    3    3    0    0 +1.1231413872e+00 -2.5700845117e-02 -4.3507610695e-01 1.2047399420e+00 0.0000000000e+00 0.0000e+00 -1.0000e+00
       22  1    3    3    0    0 -5.1041603020e+00 +9.1801563597e-01 +9.1697289231e-01 5.2665021012e+00 0.0000000000e+00 0.0000e+00 -1.0000e+00
</event>
<event>
 6      1 +5.8088000e-02 1.05794000e+01 7.81860800e-03 1.18400000e-01
      -11 -1    0    0    0    0 +0.0000000000e+00 +0.0000000000e+00 +5.2896999753e+00 5.2897000000e+00 5.1100000000e-04 0.0000e+00 -1.0000e+00
       11 -1    0    0    0    0 -0.0000000000e+00 -0.0000000000e+00 -5.2896999753e+00 5.2897000000e+00 5.1100000000e-04 0.0000e+00 1.0000e+00
  9000006  2    1    2    0    0 -3.0612155640e+00 +1.5355325835e+00 +2.2689348541e+00 6.4712414811e+00 4.9999999890e+00 7.1896e-08 0.0000e+00
       22  1    1    2    0    0 +3.0612155640e+00 -1.5355325835e+00 -2.2689348541e+00 4.1081585189e+00 0.0000000000e+00 0.0000e+00 1.0000e+00
       22  1    3    3    0    0 +1.9540255878e-01 +1.4114263264e+00 +2.8260881145e+00 3.1649771667e+00 0.0000000000e+00 0.0000e+00 -1.0000e+00
       22  1    3    3    0    0 -3.2566181228e+00 +1.2410625715e-01 -5.5715326045e-01 3.3062643144e+00 0.0000000000e+00 0.0000e+00 -1.0000e+00
</event>
<event>
 6      1 +5.8088000e-02 1.05794000e+01 7.81860800e-03 1.18400000e-01
      -11 -1    0    0    0    0 +0.0000000000e+00 +0.0000000000e+00 +5.2896999753e+00 5.2897000000e+00 5.1100000000e-04 0.0000e+00 -1.0000e+00
       11 -1    0    0    0    0 -0.0000000000e+00 -0.0000000000e+00 -5.2896999753e+00 5.2897000000e+00 5.1100000000e-04 0.0000e+00 1.0000e+00
  9000006  2    1    2    0    0 -3.5271066353e+00 -1.7620243223e+00 -1.1540175764e+00 6.4712413497e+00 4.9999997110e+00 5.4343e-07 0.0000e+00
       22  1    1    2    0    0 +3.5271066353e+00 +1.7620243223e+00 +1.1540175764e+00 4.1081586503e+00 0.0000000000e+00 0.0000e+00 1.0000e+00
       22  1    3    3    0    0 +1.2612406718e+00 -1.1866071917e-02 -3.5953750435e-01 1.3115395735e+00 0.0000000000e+00 0.0000e+00 -1.0000e+00
       22  1    3    3    0    0 -4.7883473071e+00 -1.7501582504e+00 -7.9448007209e-01 5.1597017762e+00 0.0000000000e+00 0.0000e+00 -1.0000e+00
</event>
<event>
 6      1 +5.8088000e-02 1.05794000e+01 7.81860800e-03 1.18400000e-01
      -11 -1    0    0    0    0 +0.0000000000e+00 +0.0000000000e+00 +5.2896999753e+00 5.2897000000e+00 5.1100000000e-04 0.0000e+00 1.0000e+00
       11 -1    0    0    0    0 -0.0000000000e+00 -0.0000000000e+00 -5.2896999753e+00 5.2897000000e+00 5.1100000000e-04 0.0000e+00 -1.0000e+00
  9000006  2    1    2    0    0 +1.3379834850e+00 +1.4983109380e+00 -3.5835499221e+00 6.4712415906e+00 5.0000002207e+00 1.3357e-07 0.0000e+00
       22  1    1    2    0    0 -1.3379834850e+00 -1.4983109380e+00 +3.5835499221e+00 4.1081584094e+00 0.0000000000e+00 0.0000e+00 1.0000e+00
       22  1    3    3    0    0 -7.7650997158e-01 +1.1196842271e-01 +9.7921853410e-01 1.2547404517e+00 0.0000000000e+00 0.0000e+00 -1.0000e+00
       22  1    3    3    0    0 +2.1144934566e+00 +1.3863425153e+00 -4.5627684561e+00 5.2165011389e+00 0.0000000000e+00 0.0000e+00 -1.0000e+00
</event>
<event>
 6      1 +5.8088000e-02 1.05794000e+01 7.81860800e-03 1.18400000e-01
      -11 -1    0    0    0    0 +0.0000000000e+00 +0.0000000000e+00 +5.2896999753e+00 5.2897000000e+00 5.1100000000e-04 0.0000e+00 1.0000e+00
       11 -1    0    0    0    0 -0.0000000000e+00 -0.0000000000e+00 -5.2896999753e+00 5.2897000000e+00 5.1100000000e-04 0.0000e+00 -1.0000e+00
  9000006  2    1    2    0    0 +8.1639249143e-01 +2.1389709668e-02 +4.0261661981e+00 6.4712412306e+00 4.9999994590e+00 2.1724e-08 0.0000e+00
       22  1    1    2    0    0 -8.1639249143e-01 -2.1389709668e-02 -4.0261661981e+00 4.1081587694e+00 0.0000000000e+00 0.0000e+00 -1.0000e+00
       22  1    3    3    0    0 -1.1194722122e+00 +4.9944839868e-02 +4.3642951808e+00 4.5058611770e+00 0.0000000000e+00 0.0000e+00 -1.0000e+00
       22  1    3    3    0    0 +1.9358647037e+00 -2.8555130200e-02 -3.3812898267e-01 1.9653800536e+00 0.0000000000e+00 0.0000e+00 -1.0000e+00
</event>
<event>
 6      1 +5.8088000e-02 1.05794000e+01 7.81860800e-03 1.18400000e-01
      -11 -1    0    0    0    0 +0.0000000000e+00 +0.0000000000e+00 +5.2896999753e+00 5.2897000000e+00 5.1100000000e-04 0.0000e+00 -1.0000e+00
       11 -1    0    0    0    0 -0.0000000000e+00 -0.0000000000e+00 -5.2896999753e+00 5.2897000000e+00 5.1100000000e-04 0.0000e+00 1.0000e+00
  9000006  2    1    2    0    0 +1.8219636152e+00 +9.5065555785e-01 +3.5571994569e+00 6.4712416071e+00 5.0000002556e+00 3.8315e-08 0.0000e+00
       22  1    1    2    0    0 -1.8219636152e+00 -9.5065555785e-01 -3.5571994569e+00 4.1081583929e+00 0.0000000000e+00 0.0000e+00 1.0000e+00
       22  1    3    3    0    0 +2.2051527980e+00 +2.5874483978e+00 +1.2621203277e+00 3.6263667486e+00 0.0000000000e+00 0.0000e+00 1.0000e+00
       22  1    3    3    0    0 -3.8318918281e-01 -1.6367928400e+00 +2.2950791293e+00 2.8448748585e+00 0.0000000000e+00 0.0000e+00 1.0000e+00
</event>
<event>
 6      1 +5.8088000e-02 1.05794000e+01 7.81860800e-03 1.18400000e-01
      -11 -1    0    0    0    0 +0.0000000000e+00 +0.0000000000e+00 +5.2896999753e+00 5.2897000000e+00 5.1100000000e-04 0.0000e+00 1.0000e+00
       11 -1    0    0    0    0 -0.0000000000e+00 -0.0000000000e+00 -5.2896999753e+00 5.2897000000e+00 5.1100000000e-04 0.0000e+00 -1.0000e+00
  9000006  2    1    2    0    0 -7.0150224200e-01 -7.5023158052e-01 -3.9776895231e+00 6.4712414390e+00 4.9999999000e+00 7.6995e-07 0.0000e+00
       22  1    1    2    0    0 +7.0150224200e-01 +7.5023158052e-01 +3.9776895231e+00 4.1081585610e+00 0.0000000000e+00 0.0000e+00 1.0000e+00
       22  1    3    3    0    0 +1.4550551259e+00 +8.8423848306e-01 -5.2199173579e-02 1.7034634918e+00 0.0000000000e+00 0.0000e+00 -1.0000e+00
       22  1    3    3    0    0 -2.1565573679e+00 -1.6344700636e+00 -3.9254903495e+00 4.7677779472e+00 0.0000000000e+00 0.0000e+00 -1.0000e+00
</event>
<event>
 6      1 +5.8088000e-02 1.05794000e+01 7.81860800e-03 1.18400000e-01
      -11 -1    0    0    0    0 +0.0000000000e+00 +0.0000000000e+00 +5.2896999753e+00 5.2897000000e+00 5.1100000000e-04 0.0000e+00 -1.0000e+00
       11 -1    0    0    0    0 -0.0000000000e+00 -0.0000000000e+00 -5.2896999753e+00 5.2897000000e+00 5.1100000000e-04 0.0000e+00 1.0000e+00
  9000006  2    1    2    0    0 -2.0798307968e+00 -4.2021924664e-01 +3.5177671956e+00 6.4712414830e+00 4.9999999931e+00 1.4228e-07 0.0000e+00
       22  1    1    2    0    0 +2.0798307968e+00 +4.2021924664e-01 -3.5177671956e+00 4.1081585170e+00 0.0000000000e+00 0.0000e+00 1.0000e+00
       22  1    3    3    0    0 -3.1547021766e+00 -1.2654869309e+00 +3.7750592832e+00 5.0798302715e+00 0.0000000000e+00 0.0000e+00 1.0000e+00
       22  1    3    3    0    0 +1.0748713798e+00 +8.4526768424e-01 -2.5729208765e-01 1.3914112115e+00 0.0000000000e+00 0.0000e+00 1.0000e+00
</event>
<event>
 6      1 +5.8088000e-02 1.05794000e+01 7.81860800e-03 1.18400000e-01
      -11 -1    0    0    0    0 +0.0000000000e+00 +0.0000000000e+00 +5.2896999753e+00 5.2897000000e+00 5.1100000000e-04 0.0000e+00 1.0000e+00
       11 -1    0    0    0    0 -0.0000000000e+00 -0.0000000000e+00 -5.2896999753e+00 5.2897000000e+00 5.1100000000e-04 0.0000e+00 -1.0000e+00
  9000006  2    1    2    0    0 -7.8966886689e-01 -3.2483106600e+00 -2.3878591388e+00 6.4712410048e+00 4.9999989812e+00 4.6004e-08 0.0000e+00
       22  1    1    2    0    0 +7.8966886689e-01 +3.2483106600e+00 +2.3878591388e+00 4.1081589952e+00 0.0000000000e+00 0.0000e+00 1.0000e+00
       22  1    3    3    0    0 +6.1409319635e-01 -4.0507421335e+00 -7.4136598893e-01 4.1635616743e+00 0.0000000000e+00 0.0000e+00 1.0000e+00
       22  1    3    3    0    0 -1.4037620632e+00 +8.0243147352e-01 -1.6464931499e+00 2.3076793305e+00 0.0000000000e+00 0.0000e+00 1.0000e+00
</event>
<event>
 6      1 +5.8088000e-02 1.05794000e+01 7.81860800e-03 1.18400000e-01
      -11 -1    0    0    0    0 +0.0000000000e+00 +0.0000000000e+00 +5.2896999753e+00 5.2897000000e+00 5.1100000000e-04 0.0000e+00 1.0000e+00
       11 -1    0    0    0    0 -0.0000000000e+00 -0.0000000000e+00 -5.2896999753e+00 5.2897000000e+00 5.1100000000e-04 0.0000e+00 -1.0000e+00
  9000006  2    1    2    0    0 -2.7058823428e+00 +1.5236080885e+00 -2.6895697660e+00 6.4712414848e+00 4.9999999968e+00 1.8141e-07 0.0000e+00
       22  1    1    2    0    0 +2.7058823428e+00 -1.5236080885e+00 +2.6895697660e+00 4.1081585152e+00 0.0000000000e+00 0.0000e+00 1.0000e+00
       22  1    3    3    0    0 -3.7525401167e+00 -3.1465225583e-01 -1.5962763792e+00 4.0900686606e+00 0.0000000000e+00 0.0000e+00 -1.0000e+00
       22  1    3    3    0    0 +1.0466577739e+00 +1.8382603443e+00 -1.0932933867e+00 2.3811728242e+00 0.0000000000e+00 0.0000e+00 -1.0000e+00
</event>
<event>
 6      1 +5.8088000e-02 1.05794000e+01 7.81860800e-03 1.18400000e-01
      -11 -1    0    0    0    0 +0.0000000000e+00 +0.0000000000e+00 +5.2896999753e+00 5.2897000000e+00 5.1100000000e-04 0.0000e+00 1.0000e+00
       11 -1    0    0    0    0 -0.0000000000e+00 -0.0000000000e+00 -5.2896999753e+00 5.2897000000e+00 5.1100000000e-04 0.0000e+00 -1.0000e+00
  9000006  2    1    2    0    0 +2.4601463313e+00 -2.6638975661e+00 -1.9308808500e+00 6.4712409146e+00 4.9999987904e+00 3.6000e-08 0.0000e+00
       22  1    1    2    0    0 -2.4601463313e+00 +2.6638975661e+00 +1.9308808500e+00 4.1081590854e+00 0.0000000000e+00 0.0000e+00 1.0000e+00
       22  1    3    3    0    0 +9.9530619503e-01 -6.7648850470e-01 -3.3942122997e+00 3.6012425986e+00 0.0000000000e+00 0.0000e+00 1.0000e+00
       22  1    3    3    0    0 +1.4648401363e+00 -1.9874090614e+00 +1.4633314497e+00 2.8699983160e+00 0.0000000000e+00 0.0000e+00 1.0000e+00
</event>
<event>
 6      1 +5.8088000e-02 1.05794000e+01 7.81860800e-03 1.18400000e-01
      -11 -1    0    0    0    0 +0.0000000000e+00 +0.0000000000e+00 +5.2896999753e+00 5.2897000000e+00 5.1100000000e-04 0.0000e+00 1.0000e+00
       11 -1    0    0    0    0 -0.0000000000e+00 -0.0000000000e+00 -5.2896999753e+00 5.2897000000e+00 5.1100000000e-04 0.0000e+00 -1.0000e+00
  9000006  2    1    2    0    0 +8.2899108788e-01 +2.5574516047e+00 +3.1063129880e+00 6.4712416153e+00 5.0000002730e+00 1.8200e-07 0.0000e+00
       22  1    1    2    0    0 -8.2899108788e-01 -2.5574516047e+00 -3.1063129880e+00 4.1081583847e+00 0.0000000000e+00 0.0000e+00 -1.0000e+00
       22  1    3    3    0    0 -1.0794879193e+00 -4.0394137558e-01 +2.6863998151e+00 2.9232185634e+00 0.0000000000e+00 0.0000e+00 1.0000e+00
       22  1    3    3    0    0 +1.9084790072e+00 +2.9613929803e+00 +4.1991317293e-01 3.5480230520e+00 0.0000000000e+00 0.0000e+00 1.0000e+00
</event>
<event>
 6      1 +5.8088000e-02 1.05794000e+01 7.81860800e-03 1.18400000e-01
      -11 -1    0    0    0    0 +0.0000000000e+00 +0.0000000000e+00 +5.2896999753e+00 5.2897000000e+00 5.1100000000e-04 0.0000e+00 1.0000e+00
       11 -1    0    0    0    0 -0.0000000000e+00 -0.0000000000e+00 -5.2896999753e+00 5.2897000000e+00 5.1100000000e-04 0.0000e+00 -1.0000e+00
  9000006  2    1    2    0    0 +1.8280336224e+00 +4.2729926400e-01 -3.6541311827e+00 6.4712414970e+00 5.0000000227e+00 3.1335e-07 0.0000e+00
       22  1    1    2    0    0 -1.8280336224e+00 -4.2729926400e-01 +3.6541311827e+00 4.1081585030e+00 0.0000000000e+00 0.0000e+00 1.0000e+00
       22  1    3    3    0    0 +1.2213741539e+00 +1.6475771567e+00 +4.9013078580e-01 2.1086710266e+00 0.0000000000e+00 0.0000e+00 -1.0000e+00
       22  1    3    3    0    0 +6.0665946842e-01 -1.2202778927e+00 -4.1442619685e+00 4.3625704704e+00 0.0000000000e+00 0.0000e+00 -1.0000e+00
</event>
<event>
 6      1 +5.8088000e-02 1.05794000e+01 7.81860800e-03 1.18400000e-01
      -11 -1    0    0    0    0 +0.0000000000e+00 +0.0000000000e+00 +5.2896999753e+00 5.2897000000e+00 5.1100000000e-04 0.0000e+00 -1.0000e+00
       11 -1    0    0    0    0 -0.0000000000e+00 -0.0000000000e+00 -5.2896999753e+00 5.2897000000e+00 5.1100000000e-04 0.0000e+00 1.0000e+00
  9000006  2    1    2    0    0 -3.5676640452e-01 -2.0228419979e+00 +3.5577794843e+00 6.4712414253e+00 4.9999998710e+00 3.7056e-07 0.0000e+00
       22  1    1    2    0    0 +3.5676640452e-01 +2.0228419979e+00 -3.5577794843e+00 4.1081585747e+00 0.0000000000e+00 0.0000e+00 1.0000e+00
       22  1    3    3    0    0 -9.4067054973e-01 -2.4629076764e+00 -1.9903753592e-01 2.6439348038e+00 0.0000000000e+00 0.0000e+00 -1.0000e+00
       22  1    3    3    0    0 +5.8390414520e-01 +4.4006567857e-01 +3.7568170202e+00 3.8273066216e+00 0.0000000000e+00 0.0000e+00 -1.0000e+00
</event>
<event>
 6      1 +5.8088000e-02 1.05794000e+01 7.81860800e-03 1.18400000e-01
      -11 -1    0    0    0    0 +0.0000000000e+00 +0.0000000000e+00 +5.2896999753e+00 5.2897000000e+00 5.1100000000e-04 0.0000e+00 1.0000e+00
       11 -1    0    0    0    0 -0.0000000000e+00 -0.0000000000e+00 -5.2896999753e+00 5.2897000000e+00 5.1100000000e-04 0.0000e+00 -1.0000e+00
  9000006  2    1    2    0    0 +2.0438375483e+00 -3.1597985922e+00 -1.6478372993e+00 6.4712414305e+00 4.9999998821e+00 2.2852e-07 0.0000e+00
       22  1    1    2    0    0 -2.0438375483e+00 +3.1597985922e+00 +1.6478372993e+00 4.1081585695e+00 0.0000000000e+00 0.0000e+00 -1.0000e+00
       22  1    3    3    0    0 +1.4519659664e+00 -1.7454941990e+00 -3.4343821672e+00 4.1170300019e+00 0.0000000000e+00 0.0000e+00 1.0000e+00
       22  1    3    3    0    0 +5.9187158182e-01 -1.4143043931e+00 +1.7865448679e+00 2.3542114286e+00 0.0000000000e+00 0.0000e+00 1.0000e+00
</event>
<event>
 6      1 +5.8088000e-02 1.05794000e+01 7.81860800e-03 1.18400000e-01
      -11 -1    0    0    0    0 +0.0000000000e+00 +0.0000000000e+00 +5.2896999753e+00 5.2897000000e+00 5.1100000000e-04 0.0000e+00 1.0000e+00
       11 -1    0    0    0    0 -0.0000000000e+00 -0.0000000000e+00 -5.2896999753e+00 5.2897000000e+00 5.1100000000e-04 0.0000e+00 -1.0000e+00
  9000006  2    1    2    0    0 -1.9977462745e+00 +3.1854990247e+00 -1.6548630218e+00 6.4712415519e+00 5.0000001389e+00 4.1218e-07 0.0000e+00
       22  1    1    2    0    0 +1.9977462745e+00 -3.1854990247e+00 +1.6548630218e+00 4.1081584481e+00 0.0000000000e+00 0.0000e+00 1.0000e+00
       22  1    3    3    0    0 -9.4144169822e-01 +2.4546699015e-01 -2.9372947267e+00 3.0942312173e+00 0.0000000000e+00 0.0000e+00 1.0000e+00
       22  1    3    3    0    0 -1.0563045763e+00 +2.9400320346e+00 +1.2824317050e+00 3.3770103346e+00 0.0000000000e+00 0.0000e+00 1.0000e+00
</event>
<event>
 6      1 +5.8088000e-02 1.05794000e+01 7.81860800e-03 1.18400000e-01
      -11 -1    0    0    0    0 +0.0000000000e+00 +0.0000000000e+00 +5.2896999753e+00 5.2897000000e+00 5.1100000000e-04 0.0000e+00 -1.0000e+00
       11 -1    0    0    0    0 -0.0000000000e+00 -0.0000000000e+00 -5.2896999753e+00 5.2897000000e+00 5.1100000000e-04 0.0000e+00 1.0000e+00
  9000006  2    1    2    0    0 -1.8281855463e+00 -2.5833930119e+00 +2.6193098506e+00 6.4712415392e+00 5.0000001120e+00 2.7676e-07 0.0000e+00
       22  1    1    2    0    0 +1.8281855463e+00 +2.5833930119e+00 -2.6193098506e+00 4.1081584608e+00 0.0000000000e+00 0.0000e+00 1.0000e+00
       22  1    3    3    0    0 -1.9135570918e+00 +6.9794736418e-01 +2.4476452295e+00 3.1843050162e+00 0.0000000000e+00 0.0000e+00 1.0000e+00
       22  1    3    3    0    0 +8.5371545525e-02 -3.2813403761e+00 +1.7166462111e-01 3.2869365231e+00 0.0000000000e+00 0.0000e+00 1.0000e+00
</event>
<event>
 6      1 +5.8088000e-02 1.05794000e+01 7.81860800e-03 1.18400000e-01
      -11 -1    0    0    0    0 +0.0000000000e+00 +0.0000000000e+00 +5.2896999753e+00 5.2897000000e+00 5.1100000000e-04 0.0000e+00 -1.0000e+00
       11 -1    0    0    0    0 -0.0000000000e+00 -0.0000000000e+00 -5.2896999753e+00 5.2897000000e+00 5.1100000000e-04 0.0000e+00 1.0000e+00
  9000006  2    1    2    0    0 +3.5673151776e+00 -1.6046843490e+00 +1.2554745523e+00 6.4712415576e+00 5.0000001509e+00 4.2151e-07 0.0000e+00
       22  1    1    2    0    0 -3.5673151776e+00 +1.6046843490e+00 -1.2554745523e+00 4.1081584424e+00 0.0000000000e+00 0.0000e+00 -1.0000e+00
       22  1    3    3    0    0 +2.6462151873e+00 +5.3090797540e-01 +2.6310088623e+00 3.7691545112e+00 0.0000000000e+00 0.0000e+00 -1.0000e+00
       22  1    3    3    0    0 +9.2109999038e-01 -2.1355923244e+00 -1.3755343101e+00 2.7020870464e+00 0.0000000000e+00 0.0000e+00 -1.0000e+00
</event>
<event>
 6      1 +5.8088000e-02 1.05794000e+01 7.81860800e-03 1.18400000e-01
      -11 -1    0    0    0    0 +0.0000000000e+00 +0.0000000000e+00 +5.2896999753e+00 5.2897000000e+00 5.1100000000e-04 0.0000e+00 -1.0000e+00
       11 -1    0    0    0    0 -0.0000000000e+00 -0.0000000000e+00 -5.2896999753e+00 5.2897000000e+00 5.1100000000e-04 0.0000e+00 1.0000e+00
  9000006  2    1    2    0    0 +7.2053269457e-01 +7.3841484989e-01 -3.9764988573e+00 6.4712414080e+00 4.9999998344e+00 2.8501e-08 0.0000e+00
       22  1    1    2    0    0 -7.2053269457e-01 -7.3841484989e-01 +3.9764988573e+00 4.1081585920e+00 0.0000000000e+00 0.0000e+00 -1.0000e+00
       22  1    3    3    0    0 -1.8588163666e+00 +1.5295614283e+00 -1.8503577886e+00 3.0362115200e+00 0.0000000000e+00 0.0000e+00 1.0000e+00
       22  1    3    3    0    0 +2.5793490612e+00 -7.9114657844e-01 -2.1261410687e+00 3.4350298881e+00 0.0000000000e+00 0.0000e+00 1.0000e+00
</event>
<event>
 6      1 +5.8088000e-02 1.05794000e+01 7.81860800e-03 1.18400000e-01
      -11 -1    0    0    0    0 +0.0000000000e+00 +0.0000000000e+00 +5.2896999753e+00 5.2897000000e+00 5.1100000000e-04 0.0000e+00 -1.0000e+00
       11 -1    0    0    0    0 -0.0000000000e+00 -0.0000000000e+00 -5.2896999753e+00 5.2897000000e+00 5.1100000000e-04 0.0000e+00 1.0000e+00
  9000006  2    1    2    0    0 -8.9230670720e-01 -1.1778927287e+00 -3.8331870442e+00 6.4712415980e+00 5.0000002364e+00 6.8551e-07 0.0000e+00
       22  1    1    2    0    0 +8.9230670720e-01 +1.1778927287e+00 +3.8331870442e+00 4.1081584020e+00 0.0000000000e+00 0.0000e+00 -1.0000e+00
       22  1    3    3    0    0 +5.4680328993e-01 +1.8110876677e+00 -1.5233867157e+00 2.4289379291e+00 0.0000000000e+00 0.0000e+00 1.0000e+00
       22  1    3    3    0    0 -1.4391099971e+00 -2.9889803964e+00 -2.3098003285e+00 4.0423036689e+00 0.0000000000e+00 0.0000e+00 1.0000e+00
</event>
<event>
 6      1 +5.8088000e-02 1.05794000e+01 7.81860800e-03 1.18400000e-01
      -11 -1    0    0    0    0 +0.0000000000e+00 +0.0000000000e+00 +5.2896999753e+00 5.2897000000e+00 5.1100000000e-04 0.0000e+00 1.0000e+00
       11 -1    0    0    0    0 -0.0000000000e+00 -0.0000000000e+00 -5.2896999753e+00 5.2897000000e+00 5.1100000000e-04 0.0000e+00 -1.0000e+00
  9000006  2    1    2    0    0 -2.8111668516e-01 -1.2738823390e+00 -3.8955307863e+00 6.4712419077e+00 5.0000008917e+00 8.2831e-07 0.0000e+00
       22  1    1    2    0    0 +2.8111668516e-01 +1.2738823390e+00 +3.8955307863e+00 4.1081580923e+00 0.0000000000e+00 0.0000e+00 1.0000e+00
       22  1    3    3    0    0 -9.0681702199e-01 +1.5460377462e+00 -2.9129154865e+00 3.4201793017e+00 0.0000000000e+00 0.0000e+00 1.0000e+00
       22  1    3    3    0    0 +6.2570033683e-01 -2.8199200853e+00 -9.8261529974e-01 3.0510626060e+00 0.0000000000e+00 0.0000e+00 1.0000e+00
</event>
<event>
 6      1 +5.8088000e-02 1.05794000e+01 7.81860800e-03 1.18400000e-01
      -11 -1    0    0    0    0 +0.0000000000e+00 +0.0000000000e+00 +5.2896999753e+00 5.2897000000e+00 5.1100000000e-04 0.0000e+00 -1.0000e+00
       11 -1    0    0    0    0 -0.0000000000e+00 -0.0000000000e+00 -5.2896999753e+00 5.2897000000e+00 5.1100000000e-04 0.0000e+00 1.0000e+00
  9000006  2    1    2    0    0 -3.2725657207e+00 -9.3270319504e-01 -2.3015962355e+00 6.4712414250e+00 4.9999998703e+00 6.8508e-08 0.0000e+00
       22  1    1    2    0    0 +3.2725657207e+00 +9.3270319504e-01 +2.3015962355e+00 4.1081585750e+00 0.0000000000e+00 0.0000e+00 -1.0000e+00
       22  1    3    3    0    0 -2.3647169359e+00 -8.3644641079e-01 -3.8962086054e+00 4.6337857398e+00 0.0000000000e+00 0.0000e+00 1.0000e+00
       22  1    3    3    0    0 -9.0784878486e-01 -9.6256784243e-02 +1.5946123700e+00 1.8374556852e+00 0.0000000000e+00 0.0000e+00 1.0000e+00
</event>
<event>
 6      1 +5.8088000e-02 1.05794000e+01 7.81860800e-03 1.18400000e-01
      -11 -1    0    0    0    0 +0.0000000000e+00 +0.0000000000e+00 +5.2896999753e+00 5.2897000000e+00 5.1100000000e-04 0.0000e+00 -1.0000e+00
       11 -1    0    0    0    0 -0.0000000000e+00 -0.0000000000e+00 -5.2896999753e+00 5.2897000000e+00 5.1100000000e-04 0.0000e+00 1.0000e+00
  9000006  2    1    2    0    0 +1.6204850577e+00 +1.4018536066e+00 -3.5051107089e+00 6.4712414784e+00 4.9999999834e+00 2.2892e-08 0.0000e+00
       22  1    1    2    0    0 -1.6204850577e+00 -1.4018536066e+00 +3.5051107089e+00 4.1081585216e+00 0.0000000000e+00 0.0000e+00 -1.0000e+00
       22  1    3    3    0    0 +2.0347602411e-01 +7.8174066596e-01 -4.5392879365e+00 4.6106025563e+00 0.0000000000e+00 0.0000e+00 -1.0000e+00
       22  1    3    3    0    0 +1.4170090336e+00 +6.2011294063e-01 +1.0341772276e+00 1.8606389221e+00 0.0000000000e+00 0.0000e+00 -1.0000e+00
</event>
<event>
 6      1 +5.8088000e-02 1.05794000e+01 7.81860800e-03 1.18400000e-01
      -11 -1    0    0    0    0 +0.0000000000e+00 +0.0000000000e+00 +5.2896999753e+00 5.2897000000e+00 5.1100000000e-04 0.0000e+00 -1.0000e+00
       11 -1    0    0    0    0 -0.0000000000e+00 -0.0000000000e+00 -5.2896999753e+00 5.2897000000e+00 5.1100000000e-04 0.0000e+00 1.0000e+00
  9000006  2    1    2    0    0 -8.9641991103e-01 +2.8182075963e+00 -2.8515091455e+00 6.4712413955e+00 4.9999998079e+00 2.5130e-08 0.0000e+00
       22  1    1    2    0    0 +8.9641991103e-01 -2.8182075963e+00 +2.8515091455e+00 4.1081586045e+00 0.0000000000e+00 0.0000e+00 -1.0000e+00
       22  1    3    3    0    0 -7.3315325146e-01 -1.2838213120e+00 -1.6021952904e+00 2.1800781178e+00 0.0000000000e+00 0.0000e+00 -1.0000e+00
       22  1    3    3    0    0 -1.6326665957e-01 +4.1020289083e+00 -1.2493138551e+00 4.2911632776e+00 0.0000000000e+00 0.0000e+00 -1.0000e+00
</event>
<event>
 6      1 +5.8088000e-02 1.05794000e+01 7.81860800e-03 1.18400000e-01
      -11 -1    0    0    0    0 +0.0000000000e+00 +0.0000000000e+00 +5.2896999753e+00 5.2897000000e+00 5.1100000000e-04 0.0000e+00 -1.0000e+00
       11 -1    0    0    0    0 -0.0000000000e+00 -0.0000000000e+00 -5.2896999753e+00 5.2897000000e+00 5.1100000000e-04 0.0000e+00 1.0000e+00
  9000006  2    1    2    0    0 -2.6384902100e+00 -3.0087860527e+00 +9.2873190525e-01 6.4712414039e+00 4.9999998257e+00 4.9520e-08 0.0000e+00
       22  1    1    2    0    0 +2.6384902100e+00 +3.0087860527e+00 -9.2873190525e-01 4.1081585961e+00 0.0000000000e+00 0.0000e+00 -1.0000e+00
       22  1    3    3    0    0 -2.9931249898e+00 -1.3575000118e+00 +2.5271471893e+00 4.1458505042e+00 0.0000000000e+00 0.0000e+00 1.0000e+00
       22  1    3    3    0    0 +3.5463477986e-01 -1.6512860409e+00 -1.5984152841e+00 2.3253908997e+00 0.0000000000e+00 0.0000e+00 1.0000e+00
</event>
<event>
 6      1 +5.8088000e-02 1.05794000e+01 7.81860800e-03 1.18400000e-01
      -11 -1    0    0    0    0 +0.0000000000e+00 +0.0000000000e+00 +5.2896999753e+00 5.2897000000e+00 5.1100000000e-04 0.0000e+00 1.0000e+00
       11 -1    0    0    0    0 -0.0000000000e+00 -0.0000000000e+00 -5.2896999753e+00 5.2897000000e+00 5.1100000000e-04 0.0000e+00 -1.0000e+00
  9000006  2    1    2    0    0 +2.8293810269e+00 -2.7587038569e+00 +1.1229966502e+00 6.4712415997e+00 5.0000002399e+00 2.2740e-08 0.0000e+00
       22  1    1    2    0    0 -2.8293810269e+00 +2.7587038569e+00 -1.1229966502e+00 4.1081584003e+00 0.0000000000e+00 0.0000e+00 1.0000e+00
       22  1    3    3    0    0 +3.1016393597e+00 +4.5975293242e-01 +7.1089162878e-01 3.2151059678e+00 0.0000000000e+00 0.0000e+00 1.0000e+00
       22  1    3    3    0    0 -2.7225833271e-01 -3.2184567894e+00 +4.1210502138e-01 3.2561356319e+00 0.0000000000e+00 0.0000e+00 1.0000e+00
</event>
<event>
 6      1 +5.8088000e-02 1.05794000e+01 7.81860800e-03 1.18400000e-01
      -11 -1    0    0    0    0 +0.0000000000e+00 +0.0000000000e+00 +5.2896999753e+00 5.2897000000e+00 5.1100000000e-04 0.0000e+00 -1.0000e+00
       11 -1    0    0    0    0 -0.0000000000e+00 -0.0000000000e+00 -5.2896999753e+00 5.2897000000e+00 5.1100000000e-04 0.0000e+00 1.0000e+00
  9000006  2    1    2    0    0 +1.0511106767e+00 +1.7441075206e+00 +3.5679434977e+00 6.4712415925e+00 5.0000002248e+00 6.1812e-07 0.0000e+00
       22  1    1    2    0    0 -1.0511106767e+00 -1.7441075206e+00 -3.5679434977e+00 4.1081584075e+00 0.0000000000e+00 0.0000e+00 1.0000e+00
       22  1    3    3    0    0 +1.4665136650e+00 -7.3527402043e-01 +3.6010037782e+00 3.9570845866e+00 0.0000000000e+00 0.0000e+00 -1.0000e+00
       22  1    3    3    0    0 -4.1540298829e-01 +2.4793815410e+00 -3.3060280454e-02 2.5141570060e+00 0.0000000000e+00 0.0000e+00 -1.0000e+00
</event>
<event>
 6      1 +5.8088000e-02 1.05794000e+01 7.81860800e-03 1.18400000e-01
      -11 -1    0    0    0    0 +0.0000000000e+00 +0.0000000000e+00 +5.2896999753e+00 5.2897000000e+00 5.1100000000e-04 0.0000e+00 1.0000e+00
       11 -1    0    0    0    0 -0.0000000000e+00 -0.0000000000e+00 -5.2896999753e+00 5.2897000000e+00 5.1100000000e-04 0.0000e+00 -1.0000e+00
  9000006  2    1    2    0    0 +3.8491909589e+00 -3.4823426418e-01 +1.3926307096e+00 6.4712424527e+00 5.0000020447e+00 1.7931e-07 0.0000e+00
       22  1    1    2    0    0 -3.8491909589e+00 +3.4823426418e-01 -1.3926307096e+00 4.1081575473e+00 0.0000000000e+00 0.0000e+00 1.0000e+00
       22  1    3    3    0    0 +1.7045131621e+00 +6.6531782637e-02 +3.2064414970e+00 3.6319497066e+00 0.0000000000e+00 0.0000e+00 -1.0000e+00
       22  1    3    3    0    0 +2.1446777967e+00 -4.1476604682e-01 -1.8138107873e+00 2.8392927460e+00 0.0000000000e+00 0.0000e+00 -1.0000e+00
</event>
<event>
 6      1 +5.8088000e-02 1.05794000e+01 7.81860800e-03 1.18400000e-01
      -11 -1    0    0    0    0 +0.0000000000e+00 +0.0000000000e+00 +5.2896999753e+00 5.2897000000e+00 5.1100000000e-04 0.0000e+00 -1.0000e+00
       11 -1    0    0    0    0 -0.0000000000e+00 -0.0000000000e+00 -5.2896999753e+00 5.2897000000e+00 5.1100000000e-04 0.0000e+00 1.0000e+00
  9000006  2    1    2    0    0 -9.5428158388e-01 +2.8735849672e+00 -2.7764767319e+00 6.4712414164e+00 4.9999998522e+00 6.8288e-07 0.0000e+00
       22  1    1    2    0    0 +9.5428158388e-01 -2.8735849672e+00 +2.7764767319e+00 4.1081585836e+00 0.0000000000e+00 0.0000e+00 -1.0000e+00
       22  1    3    3    0    0 -2.8281365922e+00 +2.1631000263e+00 -7.8511535165e-01 3.6460614947e+00 0.0000000000e+00 0.0000e+00 -1.0000e+00
       22  1    3    3    0    0 +1.8738550083e+00 +7.1048494094e-01 -1.9913613802e+00 2.8251799217e+00 0.0000000000e+00 0.0000e+00 -1.0000e+00
</event>
<event>
 6      1 +5.8088000e-02 1.05794000e+01 7.81860800e-03 1.18400000e-01
      -11 -1    0    0    0    0 +0.0000000000e+00 +0.0000000000e+00 +5.2896999753e+00 5.2897000000e+00 5.1100000000e-04 0.0000e+00 -1.0000e+00
       11 -1    0    0    0    0 -0.0000000000e+00 -0.0000000000e+00 -5.2896999753e+00 5.2897000000e+00 5.1100000000e-04 0.0000e+00 1.0000e+00
  9000006  2    1    2    0    0 +1.6352016737e+00 +2.3780029996e+00 +2.9237268761e+00 6.4712420642e+00 5.0000012227e+00 3.2601e-07 0.0000e+00
       22  1    1    2    0    0 -1.6352016737e+00 -2.3780029996e+00 -2.9237268761e+00 4.1081579358e+00 0.0000000000e+00 0.0000e+00 1.0000e+00
       22  1    3    3    0    0 -1.1181437329e+00 +2.7599206770e+00 +1.7493300580e+00 3.4536304380e+00 0.0000000000e+00 0.0000e+00 1.0000e+00
       22  1    3    3    0    0 +2.7533454065e+00 -3.8191767737e-01 +1.1743968181e+00 3.0176116262e+00 0.0000000000e+00 0.0000e+00 1.0000e+00
</event>
<event>
 6      1 +5.8088000e-02 1.05794000e+01 7.81860800e-03 1.18400000e-01
      -11 -1    0    0    0    0 +0.0000000000e+00 +0.0000000000e+00 +5.2896999753e+00 5.2897000000e+00 5.1100000000e-04 0.0000e+00 1.0000e+00
       11 -1    0    0    0    0 -0.0000000000e+00 -0.0000000000e+00 -5.2896999753e+00 5.2897000000e+00 5.1100000000e-04 0.0000e+00 -1.0000e+00
  9000006  2    1    2    0    0 -3.6506847324e+00 -1.4294034510e+00 -1.2273036058e+00 6.4712413636e+00 4.9999997403e+00 4.1354e-07 0.0000e+00
       22  1    1    2    0    0 +3.6506847324e+00 +1.4294034510e+00 +1.2273036058e+00 4.1081586364e+00 0.0000000000e+00 0.0000e+00 1.0000e+00
       22  1    3    3    0    0 -2.8527093836e+00 -2.8534734057e+00 -2.1749199686e+00 4.5837253598e+00 0.0000000000e+00 0.0000e+00 1.0000e+00
       22  1    3    3    0    0 -7.9797534881e-01 +1.4240699547e+00 +9.4761636287e-01 1.8875160037e+00 0.0000000000e+00 0.0000e+00 1.0000e+00
</event>
<event>
 6      1 +5.8088000e-02 1.05794000e+01 7.81860800e-03 1.18400000e-01
      -11 -1    0    0    0    0 +0.0000000000e+00 +0.0000000000e+00 +5.2896999753e+00 5.2897000000e+00 5.1100000000e-04 0.0000e+00 1.0000e+00
       11 -1    0    0    0    0 -0.0000000000e+00 -0.0000000000e+00 -5.2896999753e+00 5.2897000000e+00 5.1100000000e-04 0.0000e+00 -1.0000e+00
  9000006  2    1    2    0    0 +1.2040236604e+00 +1.8290970321e-03 -3.9277589095e+00 6.4712414866e+00 5.0000000006e+00 1.4453e-08 0.0000e+00
       22  1    1    2    0    0 -1.2040236604e+00 -1.8290970321e-03 +3.9277589095e+00 4.1081585134e+00 0.0000000000e+00 0.0000e+00 1.0000e+00
       22  1    3    3    0    0 -1.3977235583e+00 +1.4038674976e+00 -2.4977789540e+00 3.1880048305e+00 0.0000000000e+00 0.0000e+00 -1.0000e+00
       22  1    3    3    0    0 +2.6017472187e+00 -1.4020384005e+00 -1.4299799555e+00 3.2832366560e+00 0.0000000000e+00 0.0000e+00 -1.0000e+00
</event>
<event>
 6      1 +5.8088000e-02 1.05794000e+01 7.81860800e-03 1.18400000e-01
      -11 -1    0    0    0    0 +0.0000000000e+00 +0.0000000000e+00 +5.2896999753e+00 5.2897000000e+00 5.1100000000e-04 0.0000e+00 1.0000e+00
       11 -1    0    0    0    0 -0.0000000000e+00 -0.0000000000e+00 -5.2896999753e+00 5.2897000000e+00 5.1100000000e-04 0.0000e+00 -1.0000e+00
  9000006  2    1    2    0    0 +3.1283218251e+00 +1.9140384046e+00 -1.8512228751e+00 6.4712414601e+00 4.9999999446e+00 2.3073e-07 0.0000e+00
       22  1    1    2    0    0 -3.1283218251e+00 -1.9140384046e+00 +1.8512228751e+00 4.1081585399e+00 0.0000000000e+00 0.0000e+00 1.0000e+00
       22  1    3    3    0    0 +4.0821776888e+00 +1.9656967147e+00 -1.6567688752e-01 4.5338269804e+00 0.0000000000e+00 0.0000e+00 -1.0000e+00
       22  1    3    3    0    0 -9.5385586372e-01 -5.1658310136e-02 -1.6855459876e+00 1.9374144797e+00 0.0000000000e+00 0.0000e+00 -1.0000e+00
</event>
<event>
 6      1 +5.8088000e-02 1.05794000e+01 7.81860800e-03 1.18400000e-01
      -11 -1    0    0    0    0 +0.0000000000e+00 +0.0000000000e+00 +5.2896999753e+00 5.2897000000e+00 5.1100000000e-04 0.0000e+00 1.0000e+00
       11 -1    0    0    0    0 -0.0000000000e+00 -0.0000000000e+00 -5.2896999753e+00 5.2897000000e+00 5.1100000000e-04 0.0000e+00 -1.0000e+00
  9000006  2    1    2    0    0 +2.1814678675e+00 -1.6282084298e+00 -3.0768658175e+00 6.4712412875e+00 4.9999995795e+00 6.8939e-08 0.0000e+00
       22  1    1    2    0    0 -2.1814678675e+00 +1.6282084298e+00 +3.0768658175e+00 4.1081587125e+00 0.0000000000e+00 0.0000e+00 1.0000e+00
       22  1    3    3    0    0 +6.3935211678e-01 -3.1485750580e+00 -2.8483776354e+00 4.2936640738e+00 0.0000000000e+00 0.0000e+00 1.0000e+00
       22  1    3    3    0    0 +1.5421157507e+00 +1.5203666282e+00 -2.2848818216e-01 2.1775772138e+00 0.0000000000e+00 0.0000e+00 1.0000e+00
</event>
<event>
 6      1 +5.8088000e-02 1.05794000e+01 7.81860800e-03 1.18400000e-01
      -11 -1    0    0    0    0 +0.0000000000e+00 +0.0000000000e+00 +5.2896999753e+00 5.2897000000e+00 5.1100000000e-04 0.0000e+00 1.0000e+00
       11 -1    0    0    0    0 -0.0000000000e+00 -0.0000000000e+00 -5.2896999753e+00 5.2897000000e+00 5.1100000000e-04 0.0000e+00 -1.0000e+00
  9000006  2    1    2    0    0 +8.0196034646e-01 -2.3750721037e+00 +3.2546681330e+00 6.4712407344e+00 4.9999984092e+00 9.0150e-07 0.0000e+00
       22  1    1    2    0    0 -8.0196034646e-01 +2.3750721037e+00 -3.2546681330e+00 4.1081592656e+00 0.0000000000e+00 0.0000e+00 -1.0000e+00
       22  1    3    3    0    0 +1.9820817923e+00 -3.2107006170e+00 +3.3169513301e+00 5.0238842353e+00 0.0000000000e+00 0.0000e+00 -1.0000e+00
       22  1    3    3    0    0 -1.1801214458e+00 +8.3562851325e-01 -6.2283197076e-02 1.4473564992e+00 0.0000000000e+00 0.0000e+00 -1.0000e+00
</event>
<event>
 6      1 +5.8088000e-02 1.05794000e+01 7.81860800e-03 1.18400000e-01
      -11 -1    0    0    0    0 +0.0000000000e+00 +0.0000000000e+00 +5.2896999753e+00 5.2897000000e+00 5.1100000000e-04 0.0000e+00 -1.0000e+00
       11 -1    0    0    0    0 -0.0000000000e+00 -0.0000000000e+00 -5.2896999753e+00 5.2897000000e+00 5.1100000000e-04 0.0000e+00 1.0000e+00
  9000006  2    1    2    0    0 +3.8726015299e+00 +1.1635414079e+00 -7.2532242271e-01 6.4712417953e+00 5.0000006539e+00 2.6647e-07 0.0000e+00
       22  1    1    2    0    0 -3.8726015299e+00 -1.1635414079e+00 +7.2532242271e-01 4.1081582047e+00 0.0000000000e+00 0.0000e+00 1.0000e+00
       22  1    3    3    0    0 +4.0059537702e+00 +2.6779681571e+00 -7.9010097306e-02 4.8192760509e+00 0.0000000000e+00 0.0000e+00 1.0000e+00
       22  1    3    3    0    0 -1.3335224024e-01 -1.5144267492e+00 -6.4631232541e-01 1.6519657444e+00 0.0000000000e+00 0.0000e+00 1.0000e+00
</event>
<event>
 6      1 +5.8088000e-02 1.05794000e+01 7.81860800e-03 1.18400000e-01
      -11 -1    0    0    0    0 +0.0000000000e+00 +0.0000000000e+00 +5.2896999753e+00 5.2897000000e+00 5.1100000000e-04 0.0000e+00 1.0000e+00
       11 -1    0    0    0    0 -0.0000000000e+00 -0.0000000000e+00 -5.2896999753e+00 5.2897000000e+00 5.1100000000e-04 0.0000e+00 -1.0000e+00
  9000006  2    1    2    0    0 +1.2161558932e+00 +2.3788988829e+00 +3.1207002830e+00 6.4712416160e+00 5.0000002745e+00 1.1383e-06 0.0000e+00
       22  1    1    2    0    0 -1.2161558932e+00 -2.3788988829e+00 -3.1207002830e+00 4.1081583840e+00 0.0000000000e+00 0.0000e+00 -1.0000e+00
       22  1    3    3    0    0 +1.2668375171e+00 -1.2851881512e+00 +2.6176394689e-01 1.8234873848e+00 0.0000000000e+00 0.0000e+00 -1.0000e+00
       22  1    3    3    0    0 -5.0681623837e-02 +3.6640870341e+00 +2.8589363361e+00 4.6477542312e+00 0.0000000000e+00 0.0000e+00 -1.0000e+00
</event>
<event>
 6      1 +5.8088000e-02 1.05794000e+01 7.81860800e-03 1.18400000e-01
      -11 -1    0    0    0    0 +0.0000000000e+00 +0.0000000000e+00 +5.2896999753e+00 5.2897000000e+00 5.1100000000e-04 0.0000e+00 1.0000e+00
       11 -1    0    0    0    0 -0.0000000000e+00 -0.0000000000e+00 -5.2896999753e+00 5.2897000000e+00 5.1100000000e-04 0.0000e+00 -1.0000e+00
  9000006  2    1    2    0    0 -3.6402436979e+00 +1.5513936933e+00 -1.1039791787e+00 6.4712414589e+00 4.9999999421e+00 1.8207e-07 0.0000e+00
       22  1    1    2    0    0 +3.6402436979e+00 -1.5513936933e+00 +1.1039791787e+00 4.1081585411e+00 0.0000000000e+00 0.0000e+00 1.0000e+00
       22  1    3    3    0    0 -1.7528794619e+00 -1.7611263243e+00 +5.8524698816e-02 2.4854732906e+00 0.0000000000e+00 0.0000e+00 1.0000e+00
       22  1    3    3    0    0 -1.8873642360e+00 +3.3125200176e+00 -1.1625038775e+00 3.9857681683e+00 0.0000000000e+00 0.0000e+00 1.0000e+00
</event>
<event>
 6      1 +5.8088000e-02 1.05794000e+01 7.81860800e-03 1.18400000e-01
      -11 -1    0    0    0    0 +0.0000000000e+00 +0.0000000000e+00 +5.2896999753e+00 5.2897000000e+00 5.1100000000e-04 0.0000e+00 1.0000e+00
       11 -1    0    0    0    0 -0.0000000000e+00 -0.0000000000e+00 -5.2896999753e+00 5.2897000000e+00 5.1100000000e-04 0.0000e+00 -1.0000e+00
  9000006  2    1    2    0    0 +1.2807593500e+00 +3.8759450522e+00 -4.6224339022e-01 6.4712418346e+00 5.0000007370e+00 4.8793e-08 0.0000e+00
       22  1    1    2    0    0 -1.2807593500e+00 -3.8759450522e+00 +4.6224339022e-01 4.1081581654e+00 0.0000000000e+00 0.0000e+00 1.0000e+00
       22  1    3    3    0    0 -5.0536761781e-01 +4.1255029480e+00 -1.4659361301e+00 4.4072825801e+00 0.0000000000e+00 0.0000e+00 -1.0000e+00
       22  1    3    3    0    0 +1.7861269678e+00 -2.4955789583e-01 +1.0036927399e+00 2.0639592546e+00 0.0000000000e+00 0.0000e+00 -1.0000e+00
</event>
<event>
 6      1 +5.8088000e-02 1.05794000e+01 7.81860800e-03 1.18400000e-01
      -11 -1    0    0    0    0 +0.0000000000e+00 +0.0000000000e+00 +5.2896999753e+00 5.2897000000e+00 5.1100000000e-04 0.0000e+00 1.0000e+00
       11 -1    0    0    0    0 -0.0000000000e+00 -0.0000000000e+00 -5.2896999753e+00 5.2897000000e+00 5.1100000000e-04 0.0000e+00 -1.0000e+00
  9000006  2    1    2    0    0 -2.8320492076e+00 +2.4692526534e+00 +1.6611009713e+00 6.4712413105e+00 4.9999996282e+00 1.9836e-08 0.0000e+00
       22  1    1    2    0    0 +2.8320492076e+00 -2.4692526534e+00 -1.6611009713e+00 4.1081586895e+00 0.0000000000e+00 0.0000e+00 -1.0000e+00
       22  1    3    3    0    0 -3.2180276645e+00 +2.7601472995e+00 +2.9032447557e+00 5.1383796353e+00 0.0000000000e+00 0.0000e+00 1.0000e+00
       22  1    3    3    0    0 +3.8597845683e-01 -2.9089464614e-01 -1.2421437844e+00 1.3328616753e+00 0.0000000000e+00 0.0000e+00 1.0000e+00
</event>
<event>
 6      1 +5.8088000e-02 1.05794000e+01 7.81860800e-03 1.18400000e-01
      -11 -1    0    0    0    0 +0.0000000000e+00 +0.0000000000e+00 +5.2896999753e+00 5.2897000000e+00 5.1100000000e-04 0.0000e+00 -1.0000e+00
       11 -1    0    0    0    0 -0.0000000000e+00 -0.0000000000e+00 -5.2896999753e+00 5.2897000000e+00 5.1100000000e-04 0.0000e+00 1.0000e+00
  9000006  2    1    2    0    0 -1.5637877837e+00 +3.6518303246e-01 +3.7812927569e+00 6.4712415569e+00 5.0000001495e+00 1.5165e-08 0.0000e+00
       22  1    1    2    0    0 +1.5637877837e+00 -3.6518303246e-01 -3.7812927569e+00 4.1081584431e+00 0.0000000000e+00 0.0000e+00 1.0000e+00
       22  1    3    3    0    0 -2.4356406946e+00 +9.5131525738e-04 -1.3810988569e-01 2.4395534097e+00 0.0000000000e+00 0.0000e+00 -1.0000e+00
       22  1    3    3    0    0 +8.7185291083e-01 +3.6423171720e-01 +3.9194026426e+00 4.0316881473e+00 0.0000000000e+00 0.0000e+00 -1.0000e+00
</event>
<event>
 6      1 +5.8088000e-02 1.05794000e+01 7.81860800e-03 1.18400000e-01
      -11 -1    0    0    0    0 +0.0000000000e+00 +0.0000000000e+00 +5.2896999753e+00 5.2897000000e+00 5.1100000000e-04 0.0000e+00 -1.0000e+00
       11 -1    0    0    0    0 -0.0000000000e+00 -0.0000000000e+00 -5.2896999753e+00 5.2897000000e+00 5.1100000000e-04 0.0000e+00 1.0000e+00
  9000006  2    1    2    0    0 +3.7703132541e+00 +1.0889206343e-01 +1.6278325814e+00 6.4712424533e+00 5.0000020462e+00 4.3098e-07 0.0000e+00
       22  1    1    2    0    0 -3.7703132541e+00 -1.0889206343e-01 -1.6278325814e+00 4.1081575467e+00 0.0000000000e+00 0.0000e+00 1.0000e+00
       22  1    3    3    0    0 +4.5705899016e+00 +1.2111688215e+00 +1.8755699069e+00 5.0867459577e+00 0.0000000000e+00 0.0000e+00 -1.0000e+00
       22  1    3    3    0    0 -8.0027664753e-01 -1.1022767581e+00 -2.4773732548e-01 1.3844964956e+00 0.0000000000e+00 0.0000e+00 -1.0000e+00
</event>
<event>
 6      1 +5.8088000e-02 1.05794000e+01 7.81860800e-03 1.18400000e-01
      -11 -1    0    0    0    0 +0.0000000000e+00 +0.0000000000e+00 +5.2896999753e+00 5.2897000000e+00 5.1100000000e-04 0.0000e+00 1.0000e+00
       11 -1    0    0    0    0 -0.0000000000e+00 -0.0000000000e+00 -5.2896999753e+00 5.2897000000e+00 5.1100000000e-04 0.0000e+00 -1.0000e+00
  9000006  2    1    2    0    0 +3.0827046784e+00 -2.6901227298e+00 -3.7032459205e-01 6.4712411984e+00 4.9999993909e+00 1.7097e-07 0.0000e+00
       22  1    1    2    0    0 -3.0827046784e+00 +2.6901227298e+00 +3.7032459205e-01 4.1081588016e+00 0.0000000000e+00 0.0000e+00 -1.0000e+00
       22  1    3    3    0    0 +2.1853149206e+00 -1.3038584780e+00 -2.6384329084e+00 3.6656481617e+00 0.0000000000e+00 0.0000e+00 1.0000e+00
       22  1    3    3    0    0 +8.9738975777e-01 -1.3862642518e+00 +2.2681083164e+00 2.8055930368e+00 0.0000000000e+00 0.0000e+00 1.0000e+00
</event>
<event>
 6      1 +5.8088000e-02 1.05794000e+01 7.81860800e-03 1.18400000e-01
      -11 -1    0    0    0    0 +0.0000000000e+00 +0.0000000000e+00 +5.2896999753e+00 5.2897000000e+00 5.1100000000e-04 0.0000e+00 -1.0000e+00
       11 -1    0    0    0    0 -0.0000000000e+00 -0.0000000000e+00 -5.2896999753e+00 5.2897000000e+00 5.1100000000e-04 0.0000e+00 1.0000e+00
  9000006  2    1    2    0    0 +1.0968968726e-01 +1.6035470470e+00 -3.7806839588e+00 6.4712415129e+00 5.0000000562e+00 2.9786e-07 0.0000e+00
       22  1    1    2    0    0 -1.0968968726e-01 -1.6035470470e+00 +3.7806839588e+00 4.1081584871e+00 0.0000000000e+00 0.0000e+00 -1.0000e+00
       22  1    3    3    0    0 -6.6779730781e-01 -1.5055705558e+00 -1.8939607516e-01 1.6578802177e+00 0.0000000000e+00 0.0000e+00 1.0000e+00
       22  1    3    3    0    0 +7.7748699506e-01 +3.1091176028e+00 -3.5912878836e+00 4.8133612952e+00 0.0000000000e+00 0.0000e+00 1.0000e+00
</event>
<event>
 6      1 +5.8088000e-02 1.05794000e+01 7.81860800e-03 1.18400000e-01
      -11 -1    0    0    0    0 +0.0000000000e+00 +0.0000000000e+00 +5.2896999753e+00 5.2897000000e+00 5.1100000000e-04 0.0000e+00 -1.0000e+00
       11 -1    0    0    0    0 -0.0000000000e+00 -0.0000000000e+00 -5.2896999753e+00 5.2897000000e+00 5.1100000000e-04 0.0000e+00 1.0000e+00
  9000006  2    1    2    0    0 -7.4548376277e-01 +3.9331151020e+00 -9.2294422243e-01 6.4712414729e+00 4.9999999716e+00 2.4659e-07 0.0000e+00
       22  1    1    2    0    0 +7.4548376277e-01 -3.9331151020e+00 +9.2294422243e-01 4.1081585271e+00 0.0000000000e+00 0.0000e+00 -1.0000e+00
       22  1    3    3    0    0 -1.7006016426e+00 -5.5284041570e-01 -5.4392929658e-01 1.8691007335e+00 0.0000000000e+00 0.0000e+00 1.0000e+00
       22  1    3    3    0    0 +9.5511787985e-01 +4.4859555177e+00 -3.7901492584e-01 4.6021407394e+00 0.0000000000e+00 0.0000e+00 1.0000e+00
</event>
</LesHouchesEvents>

